48
Lattice="11.087434113345987 0.0 0.0 5.543717056672993 9.60199512801046 0.0 0.0 0.0 24.526424302659752" Properties=species:S:1:pos:R:3:forces:R:3 energy=-42693.15847326661 free_energy=-42693.15847326661 pbc="T T T"
Pt       1.38588521       0.80014120       9.92637509      -0.00239215      -0.00138094       0.00495323
Pt       4.15771362       0.79986071       9.92601382      -0.00179849      -0.00120405       0.00808123
Pt       6.92972071       0.79986071       9.92601382       0.00179849      -0.00120405       0.00808123
Pt       9.70154912       0.80014120       9.92637509       0.00239215      -0.00138094       0.00495323
Pt       2.77155651       3.20075526       9.92601382      -0.00194195      -0.00095542       0.00808123
Pt       5.54371716       3.20066660       9.92553028      -0.00000000      -0.00000000       0.01248039
Pt       8.31587782       3.20075526       9.92601382       0.00194195      -0.00095542       0.00808123
Pt      11.08743433       3.20078504       9.92637148       0.00000000      -0.00116728       0.00488021
Pt       4.15756005       5.60138382       9.92601382      -0.00014347       0.00215947       0.00808123
Pt       6.92987428       5.60138382       9.92601382       0.00014347       0.00215947       0.00808123
Pt       9.70170657       5.60128290       9.92635448       0.00044840       0.00025891       0.00432305
Pt      12.47316209       5.60128290       9.92635448      -0.00044840       0.00025891       0.00432305
Pt       5.54371716       8.00171740       9.92637509       0.00000000       0.00276214       0.00495323
Pt       8.31567832       8.00160727       9.92637148      -0.00101096       0.00058364       0.00488021
Pt      11.08743433       8.00143378       9.92635448       0.00000000      -0.00051782       0.00432305
Pt      13.85919034       8.00160727       9.92637148       0.00101096       0.00058364       0.00488021
Pt       0.00000000       1.60024006      12.26329722      -0.00000000       0.00080604      -0.00289686
Pt       2.77144121       1.60009233      12.26321634       0.00313623       0.00181083      -0.00007328
Pt       5.54371716       1.59999770      12.26309547       0.00000000       0.00288838       0.00283567
Pt       8.31599312       1.60009233      12.26321634      -0.00313623       0.00181083      -0.00007328
Pt       1.38559165       4.00099098      12.26332840       0.00298299      -0.00241735      -0.00241812
Pt       4.15749724       4.00100105      12.26309547       0.00250143      -0.00144419       0.00283567
Pt       6.92993709       4.00100105      12.26309547      -0.00250143      -0.00144419       0.00283567
Pt       9.70184268       4.00099098      12.26332840      -0.00298299      -0.00241735      -0.00241812
Pt       2.77155316       6.40154674      12.26332840       0.00358489      -0.00137477      -0.00241812
Pt       5.54371716       6.40181514      12.26321634       0.00000000      -0.00362166      -0.00007328
Pt       8.31588117       6.40154674      12.26332840      -0.00358489      -0.00137477      -0.00241812
Pt      11.08743433       6.40133319      12.26333456      -0.00000000      -0.00000000      -0.00387877
Pt       4.15786862       8.80187976      12.26329722      -0.00069805      -0.00040289      -0.00289686
Pt       6.92956571       8.80187976      12.26329722       0.00069805      -0.00040289      -0.00289686
Pt       9.70147282       8.80146187      12.26332840      -0.00060190       0.00379186      -0.00241812
Pt      12.47339584       8.80146187      12.26332840       0.00060190       0.00379186      -0.00241812
Pt       0.00000000       0.00000000      14.59998083       0.00000000       0.00000000      -0.00347999
Pt       2.77172828      -0.00032639      14.60015424       0.00029311       0.00339437      -0.00492546
Pt       5.54371716      -0.00055615      14.60026656       0.00000000       0.00515506      -0.00586906
Pt       8.31570605      -0.00032639      14.60015424      -0.00029311       0.00339437      -0.00492546
Pt       1.38558148       2.40055030      14.60015424       0.00308610      -0.00144342      -0.00492546
Pt       4.15740043       2.40027626      14.60031119       0.00379135       0.00218878      -0.00834837
Pt       6.93003390       2.40027626      14.60031119      -0.00379135       0.00218878      -0.00834837
Pt       9.70185285       2.40055030      14.60015424      -0.00308610      -0.00144342      -0.00492546
Pt       2.77137694       4.80127797      14.60026656       0.00446446      -0.00257753      -0.00586906
Pt       5.54371716       4.80144728      14.60031119       0.00000000      -0.00437782      -0.00834837
Pt       8.31605739       4.80127797      14.60026656      -0.00446446      -0.00257753      -0.00586906
Pt      11.08743433       4.80121906      14.60017958       0.00000000      -0.00254796      -0.00298711
Pt       4.15757036       7.20177588      14.60015424       0.00279299      -0.00195095      -0.00492546
Pt       6.92986397       7.20177588      14.60015424      -0.00279299      -0.00195095      -0.00492546
Pt       9.70169484       7.20139026      14.60017958      -0.00220652       0.00127398      -0.00298711
Pt      12.47317382       7.20139026      14.60017958       0.00220652       0.00127398      -0.00298711
