61
Lattice="15.680000118066197 0.0 0.0 0.0 11.087437843485434 0.0 0.0 0.0 22.771860331466005" Properties=species:S:1:pos:R:3:forces:R:3 energy=-44485.08701305195 free_energy=-44485.08701305195 pbc="T T T"
Pt      -0.00032242       0.00031933      10.03269599      -0.04497965       0.01556546      -0.01877060
Pt       3.91929933       0.00051155      10.03314279       0.00015067       0.01018105      -0.04234453
Pt       7.84085882       0.00025663      10.03324447       0.03606255       0.05153031      -0.04214578
Pt      11.76014971       0.00012603      10.03301243      -0.00112049       0.01230710      -0.00486916
Pt      -0.00045899       2.77169617      10.03281063      -0.08057940      -0.06186280      -0.04538228
Pt       3.91933099       2.77155760      10.03333257      -0.00433231      -0.03118774      -0.05618915
Pt       7.84092102       2.77189738      10.03334779       0.07121724      -0.03567149      -0.06622750
Pt      11.76020950       2.77199764      10.03312125      -0.01009389      -0.01910561      -0.00500157
Pt      -0.00067646       5.54343560      10.03266872      -0.09612712      -0.03856526      -0.09936028
Pt       3.91944019       5.54316180      10.03330615       0.01477639      -0.08122346       0.56161995
Pt       7.84116953       5.54346102      10.03329025       0.07021117      -0.09571163      -0.03577690
Pt      11.76006032       5.54353742      10.03301886       0.00193681      -0.00632260      -0.01924754
Pt      -0.00056339       8.31577933      10.03265653      -0.08512640       0.04579957      -0.06610049
Pt       3.91937560       8.31598111      10.03315503      -0.01939846       0.12247296       0.18332634
Pt       7.84108897       8.31562417      10.03325936       0.10325396       0.08167186      -0.12746372
Pt      11.76005018       8.31542812      10.03288058       0.03238227       0.03459805      -0.03859277
Pt       1.95625889       1.37854853      11.38452336      -0.01039986      -0.00175298       0.00559395
Pt       5.88279857       1.38927363      11.38241530       0.00362783       0.00373658       0.00454597
Pt       9.79738752       1.39116305      11.39120179       0.00801953      -0.00063532      -0.00269554
Pt      13.71974699       1.38561456      11.38656657       0.00306013      -0.00563252       0.00143210
Pt       1.94858765       4.14552792      11.36662485       0.00418190       0.00566851      -0.00585774
Pt       5.87756490       4.15507631      11.37738331       0.00289352       0.00356895      -0.00039724
Pt       9.79938316       4.15723149      11.38543187      -0.00054585       0.00228211      -0.00905028
Pt      13.71580927       4.15501999      11.38457193       0.00848233       0.00495272      -0.00565463
Pt       1.94798323       6.92607012      11.34566848      -0.00560963       0.00805012      -0.00683528
Pt       5.89198563       6.92971030      11.33012100       0.01086985      -0.00326607      -0.00225486
Pt       9.80678151       6.93757288      11.37534932       0.00607706      -0.00307787      -0.00389162
Pt      13.71622096       6.92996912      11.38765469      -0.00248780       0.00324910      -0.01087988
Pt       1.95835019       9.69974443      11.37631219      -0.01094699       0.00571993       0.00593616
Pt       5.88344160       9.70716004      11.37085335      -0.00154986       0.00285032       0.00222478
Pt       9.80011648       9.71022384      11.38226330       0.00237236      -0.00850392       0.00520623
Pt      13.71865508       9.70231719      11.38583069       0.00440379      -0.00189002      -0.00267086
Pt       0.00009744      -0.01063452      12.74130979       0.01043791       0.00872118      -0.00994194
Pt       3.92555844      -0.00504683      12.73995332      -0.00231836       0.00584360       0.00825864
Pt       7.83508324       0.01128904      12.74356734      -0.00174012       0.00255568      -0.00650566
Pt      11.75849987       0.00604415      12.74057560       0.00529904      -0.00897058       0.00296114
Pt      -0.00094490       2.77016637      12.74271569       0.00196767      -0.00098165      -0.01029341
Pt       3.91250970       2.73138430      12.73645797      -0.00786475       0.01208984      -0.00637711
Pt       7.82751591       2.78584547      12.74933949      -0.00520983       0.00215201       0.00047565
Pt      11.75696434       2.77645657      12.74169028       0.00985761      -0.00633391      -0.00159486
Pt      -0.00574029       5.54001390      12.73470694      -0.00131692       0.00737315       0.00029876
Pt       3.89956458       5.52823291      12.78095009      -0.00871835       0.00481722       0.00857103
Pt       7.84987439       5.56949657      12.73050699       0.00089294      -0.00495040      -0.00152826
Pt      11.75602628       5.54736423      12.74003720      -0.00173498      -0.00186765       0.00436805
Pt       0.00065126       8.30474072      12.73768142       0.00443592       0.01300850      -0.00022111
Pt       3.93995675       8.30816546      12.74667922      -0.00446935       0.00306913       0.00663705
Pt       7.84053652       8.33447645      12.73228822       0.00264567      -0.00278322       0.00487995
Pt      11.75620166       8.32224990      12.74011265       0.00842756      -0.01311983       0.00341982
O        5.25734480       7.40785607      15.19791190      -0.00558624      -0.00128478      -0.00526511
O        6.73948808       4.15201197      15.83463235      -0.01678596       0.00199029      -0.02290030
C        5.40501532       6.08217243      15.28777217      -0.00200366       0.00485373      -0.00021957
C        6.73878919       5.52578751      15.56706150      -0.00339823      -0.00241915      -0.00192910
C        4.20913737       5.38317984      15.00912147       0.01542199       0.00020672      -0.01232844
C        3.22655060       6.37861088      14.67483913       0.01431050      -0.00768271       0.00603052
C        3.89575865       7.69732227      14.72615490      -0.00235899      -0.00767526      -0.00658974
H        7.39541414       5.76474846      14.61416168      -0.01899942      -0.01104572       0.00950383
H        7.25719988       6.07959070      16.36544297      -0.00979693       0.00459353      -0.01657256
H        4.04441177       4.35009726      15.30170161      -0.00349541      -0.00334089      -0.00160180
H        2.14707030       6.27606914      14.77752764       0.01047622       0.00063403      -0.01036566
H        3.47315562       8.49452250      15.34787371       0.00170258      -0.00407726       0.00066566
H        6.82151925       3.67009638      14.97152649      -0.00075899      -0.01517131       0.00593796
