59
Lattice="15.680000118066197 0.0 0.0 0.0 11.087437843485434 0.0 0.0 0.0 22.771860331466005" Properties=species:S:1:pos:R:3:forces:R:3 energy=-44452.810479472144 free_energy=-44452.810479472144 pbc="T T T"
Pt      -0.00032242       0.00031933      10.03269599      -0.02058399      -0.03289212      -0.00609660
Pt       3.91929933       0.00051155      10.03314279       0.00084769      -0.05648199      -0.02241848
Pt       7.84085882       0.00025663      10.03324447       0.05080346       0.05788607      -0.01494479
Pt      11.76014971       0.00012603      10.03301243      -0.03715681       0.05608913       0.03882417
Pt      -0.00045899       2.77169617      10.03281063      -0.13328727      -0.09635003      -0.09834701
Pt       3.91933099       2.77155760      10.03333257      -0.14376786      -0.17028699      -0.24547685
Pt       7.84092102       2.77189738      10.03334779       0.15730369      -0.19579233       0.46943304
Pt      11.76020950       2.77199764      10.03312125      -0.01784500      -0.08868146       0.00699571
Pt      -0.00067646       5.54343560      10.03266872      -0.06460925       0.00134752      -0.06336252
Pt       3.91944019       5.54316180      10.03330615      -0.23563286      -0.05335373       0.23768203
Pt       7.84116953       5.54346102      10.03329025       0.25218357       0.06393331      -0.25118135
Pt      11.76006032       5.54353742      10.03301886       0.05161207       0.03057684      -0.05912792
Pt      -0.00056339       8.31577933      10.03265653      -0.00139277       0.05696099      -0.01025947
Pt       3.91937560       8.31598111      10.03315503      -0.14842850       0.16864945       0.31879699
Pt       7.84108897       8.31562417      10.03325936       0.21696460       0.17548448      -0.21912021
Pt      11.76005018       8.31542812      10.03288058       0.05316913       0.06726469      -0.04857817
Pt       1.95415104       1.35830791      11.37494469       0.00593693       0.00524711       0.00590865
Pt       5.88747161       1.38115689      11.37096530      -0.01036977       0.00323291       0.00006891
Pt       9.77212206       1.40955896      11.41672045      -0.00019515       0.00925494      -0.00632286
Pt      13.72075816       1.38251556      11.38712386      -0.00962107       0.01363225      -0.00802416
Pt       1.94173527       4.13338912      11.35070807      -0.01161676       0.00018281      -0.00775368
Pt       5.86864208       4.14947777      11.28004404      -0.00632697       0.00100067      -0.00058261
Pt       9.80690466       4.16738470      11.35172682       0.00678154       0.00240578      -0.00135446
Pt      13.71973248       4.15518454      11.38626162       0.00404640       0.00706591       0.00024734
Pt       1.95940725       6.92461304      11.36750889      -0.00059444      -0.00757961      -0.00200906
Pt       5.88939744       6.93922503      11.26285027      -0.00075436      -0.01558551      -0.00224046
Pt       9.80595385       6.94503373      11.37234083      -0.00385100      -0.00969229       0.00312081
Pt      13.71854568       6.93134149      11.38509991       0.00572302      -0.00994143       0.00569319
Pt       1.97900454       9.67955267      11.39620480       0.01015689      -0.00650155       0.00327970
Pt       5.88322711       9.70260935      11.37300473      -0.01035795       0.00408497      -0.00501108
Pt       9.79831365       9.72144019      11.38103103       0.00322776      -0.00302825       0.00112871
Pt      13.71948733       9.70198665      11.38823954       0.00066232      -0.00202757      -0.00423538
Pt       0.00667945      -0.01685873      12.73944351      -0.00442693       0.00214019       0.00029233
Pt       3.93679170      -0.04901682      12.74758610      -0.00261790       0.00029593       0.00810669
Pt       7.82638663       0.02273054      12.75238836       0.00684093      -0.00839414      -0.00322673
Pt      11.75317866       0.01265141      12.73669053      -0.00224174       0.00758938      -0.00208568
Pt       0.00308953       2.76216596      12.74073429      -0.00235539       0.00289918      -0.00357718
Pt       3.90105878       2.67677971      12.71714889      -0.00338306       0.01242280      -0.00971131
Pt       7.78658113       2.88550833      12.79756913       0.01094056       0.00821776       0.02331322
Pt      11.75490484       2.78063557      12.73566774      -0.00358052       0.00280302       0.00104233
Pt       0.00237007       5.53771849      12.73590616       0.00849724      -0.00194350      -0.00986712
Pt       3.90136370       5.46193513      12.73438517      -0.00582895      -0.00484576       0.00890064
Pt       7.80895133       5.60919786      12.71668845       0.00153546      -0.00548571      -0.00511135
Pt      11.75475423       5.55009687      12.73664095       0.00076259      -0.01259146      -0.00245489
Pt       0.00787102       8.30431544      12.73819934      -0.00048285      -0.00457168      -0.00297425
Pt       4.01444163       8.23100863      12.80972451       0.00137374      -0.00019772       0.00187742
Pt       7.84605523       8.35583243      12.72953316      -0.00653677      -0.01349341      -0.00058698
Pt      11.75523573       8.32445754      12.73759161      -0.00107266      -0.00069471       0.01017360
O        5.85805643       7.04664512      14.88158072      -0.01062380      -0.00848670      -0.01066879
O        7.18824361       3.63931130      14.65213414       0.00434696       0.01158642      -0.00618145
C        5.94936268       5.70047347      14.77410368       0.00550036      -0.00516226       0.00138402
C        4.64843118       5.10495986      14.76728224       0.00146707       0.00288761      -0.00285392
C        3.69683372       6.18150277      14.76929968       0.00620484      -0.00131589      -0.01305066
C        4.45434163       7.44980991      14.72833468      -0.01454602      -0.00042757      -0.00874149
C        7.23362841       5.00821367      14.66333236       0.00812571      -0.01032606       0.00376615
H        4.48312296       4.06773512      15.05374606       0.01116322       0.02232720       0.00791411
H        2.66464418       6.12319324      15.10918526       0.01387856       0.01024790      -0.00172341
H        4.23912254       8.23520862      15.46108920       0.00440610       0.00429760      -0.00216898
H        8.05695417       5.44831214      15.25570303       0.00962544       0.01411613       0.00348127
