70
Lattice="15.680000118066197 0.0 0.0 0.0 11.087437843485434 0.0 0.0 0.0 22.771860331466005" Properties=species:S:1:pos:R:3:forces:R:3 energy=-46243.3575096798 free_energy=-46243.3575096798 pbc="T T T"
Pt      -0.00032242       0.00031933      10.03269599       0.07705699      -0.04563322      -0.04705402
Pt       3.91929933       0.00051155      10.03314279      -0.04148269      -0.04013852      -0.02973147
Pt       7.84085882       0.00025663      10.03324447      -0.01071764      -0.02579254      -0.04759523
Pt      11.76014971       0.00012603      10.03301243      -0.04173980       0.01233590      -0.02732928
Pt      -0.00045899       2.77169617      10.03281063       0.03666059      -0.09798603      -0.12431824
Pt       3.91933099       2.77155760      10.03333257      -0.09827013      -0.10418650      -0.11942748
Pt       7.84092102       2.77189738      10.03334779      -0.14620784      -0.25710132       0.36657092
Pt      11.76020950       2.77199764      10.03312125       0.12493787      -0.23356672       0.07367779
Pt      -0.00067646       5.54343560      10.03266872      -0.02903830       0.02140623      -0.13659114
Pt       3.91944019       5.54316180      10.03330615      -0.07669446      -0.07545262      -0.05421454
Pt       7.84116953       5.54346102      10.03329025      -0.08394600       0.14407665      -0.03391157
Pt      11.76006032       5.54353742      10.03301886       0.17960775       0.18195234       0.27921795
Pt      -0.00056339       8.31577933      10.03265653       0.03047760       0.09248001      -0.07098404
Pt       3.91937560       8.31598111      10.03315503      -0.02495461       0.14604637       0.23752237
Pt       7.84108897       8.31562417      10.03325936      -0.02324586       0.14709410      -0.10692652
Pt      11.76005018       8.31542812      10.03288058       0.04874863       0.08785177      -0.11412227
Pt       1.95950832       1.37472527      11.38262978       0.00378595       0.00010979       0.00008870
Pt       5.87625720       1.37778728      11.36667041      -0.01518879       0.00061244      -0.00941307
Pt       9.78281919       1.39228388      11.38870927       0.01650931      -0.00017895       0.00543120
Pt      13.72411767       1.38293712      11.36650499       0.00607757       0.00452643       0.00265724
Pt       1.95264553       4.14602862      11.36371219      -0.00144445      -0.00033990       0.01248759
Pt       5.86318561       4.16297665      11.32554818      -0.00113360       0.01319876       0.00707131
Pt       9.79967758       4.15283903      11.25401761       0.00552170       0.00516020       0.00339694
Pt      13.73199041       4.16295705      11.35613429       0.00610251       0.00267986       0.00068288
Pt       1.95140883       6.93267476      11.34839731      -0.00629406       0.00814346       0.00794445
Pt       5.90043985       6.92121762      11.33757188       0.01679059       0.00040623      -0.00600481
Pt       9.80173054       6.95194482      11.33906803       0.00041061      -0.00133492      -0.01154142
Pt      13.72036714       6.93673439      11.37780374      -0.00140331       0.00258627      -0.01015277
Pt       1.97243289       9.69377868      11.39186698       0.01536286       0.00058493      -0.00046871
Pt       5.88073855       9.69655789      11.37338907       0.01406908       0.00048105      -0.00807275
Pt       9.79248599       9.71483176      11.38503988       0.01127917      -0.00819539       0.00504759
Pt      13.72337703       9.70779103      11.37996294       0.01289331      -0.01142290      -0.00541654
Pt       0.00324562      -0.00317520      12.73910870      -0.00471823       0.00363143       0.00562840
Pt       3.93157374      -0.01235541      12.74676216       0.00524788       0.00922358      -0.01685667
Pt       7.82231458      -0.00700527      12.74580514       0.00672986      -0.00306578      -0.00176172
Pt      11.75814989       0.01417899      12.73832669      -0.00886953       0.00808740       0.00488947
Pt      -0.00158522       2.77310988      12.73945636       0.00446061       0.00551347      -0.01057572
Pt       3.91293084       2.75003017      12.73355780       0.01102798       0.00232839      -0.00886311
Pt       7.79661185       2.82230217      12.74783398      -0.00073842       0.00294314       0.00225717
Pt      11.77866758       2.78946287      12.74493283      -0.00500388       0.00695946      -0.00835480
Pt       0.00173911       5.54505972      12.73536531      -0.00066206      -0.01057032      -0.00143030
Pt       3.89381291       5.53506360      12.73256477       0.00687410      -0.01108531      -0.00672421
Pt       7.89895279       5.55720937      12.76042670      -0.00967866      -0.00147530      -0.00770020
Pt      11.73583029       5.56167347      12.75574108      -0.00408060      -0.00512755       0.00340363
Pt       0.00299268       8.31079163      12.73843576       0.00148404      -0.00109915       0.00312209
Pt       3.96992673       8.26592373      12.77856533      -0.00493678       0.01520396       0.01515382
Pt       7.84849605       8.31302862      12.75000239      -0.00255028       0.00766574       0.00251608
Pt      11.76225673       8.36203923      12.73272224      -0.00243586      -0.00579064       0.00840519
O        5.17063920       5.37331804      15.25530605      -0.00181443       0.00711399      -0.00449994
O        8.30649273       6.83742608      16.17468045      -0.01049987      -0.00946989      -0.00255079
O       10.09192688       3.42407392      14.89522321       0.00543326      -0.00141693      -0.00872530
O        7.52348025       3.56897532      14.67686659       0.01340779      -0.00247392       0.00077442
C        7.47948463       5.73299859      15.82096859      -0.00314394      -0.00965578      -0.00631489
C        6.16059004       6.29064538      15.38503321      -0.00701654       0.01019982       0.00371113
C        8.13623614       4.78571385      14.74432350       0.00457759      -0.00832626      -0.01500856
C        9.61647688       4.68207723      14.83773008       0.01157922      -0.00085669       0.00226231
C        5.73860909       7.57187330      15.14754720      -0.01975250       0.00109889      -0.00154086
C       10.69185366       5.61750193      14.80201367       0.01334994       0.01152754      -0.00832677
C        4.32962844       7.52051808      14.75735583       0.00155629      -0.01435241      -0.00267318
C        4.02024703       6.05178545      14.72741376      -0.00233482       0.00565668       0.00258499
C       11.92003581       4.86443667      14.76918609       0.00636297      -0.00763283       0.00574513
C       11.52845871       3.43062805      14.70468656      -0.01537237      -0.00189696       0.00396721
H        7.28438535       5.07745976      16.69134907       0.01614627      -0.01126117       0.00087572
H        6.33522747       8.46808586      15.28865505       0.00663499      -0.01361425      -0.00058775
H       10.56914069       6.67776006      14.99848628      -0.01638847       0.01396160       0.01132005
H        3.61388757       8.18143305      15.26973456       0.00903511       0.00164859      -0.02119669
H        3.11577876       5.67717215      15.22077240       0.00080218       0.00167045       0.00697720
H       12.88266668       5.18638621      15.16398132      -0.00664913       0.00524479       0.01535360
H        8.94607034       6.52870134      16.84401115       0.00001980       0.01972782      -0.00289275
H       11.98404232       2.71290372      15.39607377      -0.00261481       0.00936113      -0.00088317
