72
Lattice="15.680000118066197 0.0 0.0 0.0 11.087437843485434 0.0 0.0 0.0 22.771860331466005" Properties=species:S:1:pos:R:3:forces:R:3 energy=-46275.96811701115 free_energy=-46275.96811701115 pbc="T T T"
Pt      -0.00032242       0.00031933      10.03269599       0.10323391      -0.04115796      -0.05940200
Pt       3.91929933       0.00051155      10.03314279      -0.08111291       0.05110556      -0.06339698
Pt       7.84085882       0.00025663      10.03324447       0.05544121       0.03082804      -0.06415339
Pt      11.76014971       0.00012603      10.03301243      -0.02322606      -0.02176310      -0.04184522
Pt      -0.00045899       2.77169617      10.03281063       0.11800618      -0.05810230      -0.10407723
Pt       3.91933099       2.77155760      10.03333257      -0.06490364      -0.05049467      -0.05215637
Pt       7.84092102       2.77189738      10.03334779      -0.01667618      -0.09181821      -0.09817629
Pt      11.76020950       2.77199764      10.03312125      -0.02322760      -0.15179356       0.07814765
Pt      -0.00067646       5.54343560      10.03266872       0.11219034       0.00855895      -0.07044411
Pt       3.91944019       5.54316180      10.03330615      -0.24563394      -0.17070762       0.02114630
Pt       7.84116953       5.54346102      10.03329025       0.17410996      -0.11097190      -0.12030654
Pt      11.76006032       5.54353742      10.03301886      -0.05243174       0.06124239       0.52714582
Pt      -0.00056339       8.31577933      10.03265653       0.13132784       0.04806240       0.02622062
Pt       3.91937560       8.31598111      10.03315503      -0.30726123       0.19776154      -0.01990420
Pt       7.84108897       8.31562417      10.03325936       0.23332761       0.24115688      -0.05027869
Pt      11.76005018       8.31542812      10.03288058      -0.08703956       0.04110217       0.02488905
Pt       1.96786018       1.38075130      11.38857184      -0.00493035       0.00449943       0.00168793
Pt       5.88142011       1.39760660      11.38037570      -0.00257882       0.01024045       0.00616859
Pt       9.79468166       1.38137270      11.38445737      -0.00371062       0.00129301       0.00818279
Pt      13.73322050       1.37211184      11.36129294      -0.00375998       0.01398989       0.00116034
Pt       1.97597488       4.15769227      11.38866370      -0.00440661       0.00829464       0.00104464
Pt       5.87678264       4.15554013      11.34746491       0.01515460      -0.00649512      -0.00439247
Pt       9.77843533       4.15777346      11.34483227      -0.00114671       0.00469869       0.00787580
Pt      13.73472283       4.15599997      11.34701651       0.00178666       0.00722891       0.00372913
Pt       1.97221760       6.93310751      11.37688248      -0.00963907       0.00209956       0.01002679
Pt       5.87352007       6.92708957      11.23675538       0.01080738       0.00177895       0.01298664
Pt       9.79781652       6.93901069      11.37840858      -0.00462104      -0.00726182      -0.00756650
Pt      13.72093907       6.92580495      11.38355840       0.00133312      -0.01113699       0.00435622
Pt       1.98340158       9.69369283      11.40780854      -0.00321954      -0.00158329      -0.00153546
Pt       5.87701985       9.72719564      11.33569500      -0.00669592      -0.00293209       0.00575259
Pt       9.77829480       9.69513202      11.41140087      -0.00560552       0.00436059      -0.01300335
Pt      13.72565609       9.69407928      11.37894913      -0.00626989      -0.00457682       0.00386103
Pt       0.00733601      -0.00726582      12.73598055       0.01245442       0.00679800       0.00610483
Pt       3.94049168       0.00554289      12.74593385      -0.00213042       0.00533247       0.01257681
Pt       7.82307117       0.02673994      12.74634903      -0.00814680       0.00336455       0.01778972
Pt      11.76340663      -0.02273335      12.73240665      -0.02339935      -0.00748937      -0.00059495
Pt       0.00687230       2.77008901      12.73365441       0.02330139       0.01527030      -0.00025557
Pt       3.93012216       2.77790477      12.74546151      -0.00651415       0.00231682       0.01533946
Pt       7.83463549       2.80402848      12.74695248      -0.00379083       0.00003651      -0.01652757
Pt      11.79257064       2.74638746      12.72894698      -0.00138094       0.01321624       0.00927448
Pt       0.01679326       5.53752050      12.73013018       0.00173498       0.01183607       0.01026770
Pt       3.97915454       5.56397792      12.78990938      -0.00362783      -0.00740966      -0.00937630
Pt       7.77709261       5.61574093      12.75015319       0.00111483      -0.02146794       0.00187511
Pt      11.75346605       5.50716953      12.78639199       0.00244949      -0.01086625       0.01524176
Pt       0.01141497       8.30636474      12.73579303       0.00235642      -0.01476405       0.00195995
Pt       4.03584698       8.29361976      12.78137376       0.00838900      -0.00245669      -0.00628815
Pt       7.71727606       8.32655736      12.77405457       0.01629488      -0.01153448      -0.00149921
Pt      11.76018799       8.32112302      12.73787141      -0.01277093      -0.01614807      -0.00371370
O        8.33696374       3.86654301      16.84855308       0.00285521      -0.01116399      -0.00368465
O        7.86013230       6.44108376      16.96133944       0.00370573       0.00867207      -0.01138227
O       10.68720844       3.21100212      15.28442648       0.01462572       0.01491343       0.00514195
O        5.93532961       5.47133062      14.96131892       0.01751950      -0.00587883       0.01611053
C        8.74552521       4.56182267      15.65718898      -0.00057001       0.01118121       0.01013915
C        8.22419105       6.03000825      15.65518117      -0.00873018      -0.00953108      -0.00517949
C       10.21357918       4.46066685      15.43956152       0.00659925       0.00415619      -0.00175118
C        7.07840223       6.24617209      14.64562741      -0.01394721      -0.00363888       0.00074176
C       11.18536509       5.42374515      15.15639439      -0.00584695       0.01265728      -0.01418452
C        6.64099961       7.68092249      14.47084893      -0.01525024      -0.00949560      -0.01948845
C       12.36672145       4.73098447      14.70475392       0.00524042      -0.00417933       0.01164735
C        5.12183708       7.64706652      14.47397793       0.01234232      -0.01084363       0.00340003
C       12.01720399       3.28670228      14.71787195       0.00286781      -0.01337899      -0.01632162
C        4.76651532       6.19189055      14.62799675       0.00994940       0.00228263       0.00987792
H        8.30976298       4.03069046      14.76537477       0.00601638      -0.00150204       0.01030601
H        9.02046791       6.70360893      15.30770214      -0.00778710      -0.00299148      -0.01765859
H       11.11094159       6.47852002      15.39818614      -0.00577367       0.01971213      -0.00558007
H        7.05136690       8.36620758      15.22747280       0.00397313       0.00414436       0.00388262
H        7.60970689       3.26275590      16.59877334       0.00650155       0.00873532       0.00597653
H        7.66771174       5.60927120      17.45393120       0.00094488       0.00334680      -0.00805218
H       13.39460356       5.06136540      14.85970883      -0.01361811       0.00953031      -0.00009719
H        4.67741123       8.31001609      15.23183441      -0.01154245       0.00178152       0.00082044
H       12.67797815       2.57224472      15.21999266       0.00145422      -0.00175812      -0.00302619
H        3.97004766       5.93380275      15.33872011      -0.01648489      -0.00029259       0.00244512
