60
Lattice="15.680000118066197 0.0 0.0 0.0 11.087437843485434 0.0 0.0 0.0 22.771860331466005" Properties=species:S:1:pos:R:3:forces:R:3 energy=-44044.93272006444 free_energy=-44044.93272006444 pbc="T T T"
Pt      -0.00032242       0.00031933      10.03269599      -0.05630844       0.02410589      -0.02687806
Pt       3.91929933       0.00051155      10.03314279       0.00854223       0.00716875      -0.03912216
Pt       7.84085882       0.00025663      10.03324447       0.03877789       0.03066632      -0.04425408
Pt      11.76014971       0.00012603      10.03301243      -0.00714252       0.00476271       0.00470203
Pt      -0.00045899       2.77169617      10.03281063      -0.07364694      -0.05197716      -0.04505293
Pt       3.91933099       2.77155760      10.03333257       0.00059650      -0.01477279      -0.06272412
Pt       7.84092102       2.77189738      10.03334779       0.07871304      -0.05374994      -0.07099253
Pt      11.76020950       2.77199764      10.03312125       0.00418190      -0.02648879      -0.01582411
Pt      -0.00067646       5.54343560      10.03266872      -0.10409754      -0.03184620      -0.11960772
Pt       3.91944019       5.54316180      10.03330615       0.03083833      -0.06134138       0.54046568
Pt       7.84116953       5.54346102      10.03329025       0.07436813      -0.07220969      -0.05814344
Pt      11.76006032       5.54353742      10.03301886       0.00335889       0.00603027      -0.02187983
Pt      -0.00056339       8.31577933      10.03265653      -0.11221271       0.05563044      -0.08510043
Pt       3.91937560       8.31598111      10.03315503       0.01820110       0.12810444       0.16475963
Pt       7.84108897       8.31562417      10.03325936       0.10052422       0.08473405      -0.10169381
Pt      11.76005018       8.31542812      10.03288058       0.01551018       0.02366263      -0.01875980
Pt       1.95588650       1.38373023      11.38435101      -0.01281386       0.00014115       0.00552119
Pt       5.88147227       1.38859795      11.38294651       0.00558624      -0.00125393      -0.00035533
Pt       9.80058126       1.38767496      11.38964877       0.00259219      -0.00924569       0.00057413
Pt      13.71954208       1.38490313      11.38639573       0.01430767       0.00123104       0.00614237
Pt       1.94892557       4.15214811      11.36907444       0.00234870      -0.00984218       0.00015324
Pt       5.88072858       4.15679523      11.37705781      -0.00634471      -0.01796918      -0.00659179
Pt       9.80212429       4.15574306      11.38288976       0.00578421      -0.00271663      -0.00556618
Pt      13.71635268       4.15564921      11.38276208       0.00608657       0.00378415       0.00304084
Pt       1.94333127       6.92912673      11.34076823       0.01219243       0.01413413       0.00771511
Pt       5.89704039       6.93068289      11.33840681      -0.02408121       0.01825895       0.00012933
Pt       9.80504434       6.93334009      11.38204417       0.00894538       0.01257424      -0.00788969
Pt      13.71560725       6.93196544      11.38628896       0.00075745      -0.00273720      -0.00544688
Pt       1.95381504       9.70677355      11.37116042      -0.00507819      -0.01883950       0.00829772
Pt       5.88266706       9.70716135      11.37784248      -0.01702225      -0.01607068      -0.01342450
Pt       9.80225813       9.70541879      11.38544264       0.00337586       0.00218364      -0.00496223
Pt      13.71774472       9.70347670      11.38529545       0.01832091      -0.00231245       0.00172624
Pt       0.00090432      -0.00353453      12.74291086      -0.00546565      -0.00601124      -0.01445937
Pt       3.92173288       0.00312978      12.74002878      -0.00501365      -0.00372630       0.00590068
Pt       7.83822698       0.00337793      12.73984365      -0.00386385      -0.00307812       0.00813009
Pt      11.76142286       0.00266673      12.74356810      -0.00438553      -0.00759530      -0.00904720
Pt      -0.00101498       2.77530074      12.74224734      -0.00239884       0.00078984      -0.00047000
Pt       3.91168514       2.74330284      12.73530814      -0.00152775      -0.00990775      -0.01068396
Pt       7.83653230       2.77520421      12.74095434       0.01096807      -0.00371961      -0.01117170
Pt      11.76080332       2.77207528      12.74280448      -0.00302310       0.00104130      -0.00147581
Pt      -0.00879218       5.54615864      12.73382278      -0.00672215       0.00354915       0.00970257
Pt       3.90946228       5.54123022      12.77365107      -0.01241920       0.00286678      -0.00053479
Pt       7.85059287       5.55272333      12.73712142      -0.00650541      -0.00159974       0.02078968
Pt      11.75751617       5.54310800      12.74091463       0.00759838       0.01146918       0.00704765
Pt      -0.00139043       8.31275696      12.73763938       0.00136860      -0.00473880      -0.00054430
Pt       3.91655045       8.31567925      12.74127156      -0.00396233       0.02069070      -0.02531534
Pt       7.84220465       8.32725825      12.73534793       0.00099759      -0.00236747      -0.01098247
Pt      11.75960738       8.31912121      12.74247357      -0.00207102      -0.00957145      -0.00443361
O        5.10439512       7.53113592      15.25671432      -0.01374692      -0.01021782      -0.00980876
C        5.35739347       6.21883335      15.36382284      -0.00089937      -0.00803264      -0.01116142
C        4.23114731       5.43577133      15.02515670      -0.00384354       0.00131152       0.01121335
C        6.71448012       5.79635200      15.67173209       0.00084615       0.00640230      -0.00485527
C        3.18540871       6.34752919      14.64435223       0.00470563      -0.00356766       0.02210017
C        3.75769814       7.71303238      14.71461931       0.00251788      -0.01556829       0.01932724
H        4.12599378       4.38718472      15.29262281      -0.00419655       0.00871810       0.00086363
H        6.75293858       4.78191157      16.07969654      -0.00160025       0.00137580       0.01222791
H        7.29727188       5.74924697      14.66985581       0.00586854      -0.02019756       0.00484113
H        7.26306122       6.51300392      16.29124950      -0.00268500       0.01337359       0.00054353
H        2.11409227       6.16880486      14.72921945      -0.00321619       0.00863376       0.00148558
H        3.23818467       8.48142711      15.29774850       0.01751333       0.00587806       0.00181314
