65
Lattice="15.680000118066197 0.0 0.0 0.0 11.087437843485434 0.0 0.0 0.0 22.771860331466005" Properties=species:S:1:pos:R:3:forces:R:3 energy=-44549.27911753105 free_energy=-44549.27911753105 pbc="T T T"
Pt      -0.00032242       0.00031933      10.03269599      -0.00012547      -0.01267142       0.00317146
Pt       3.91929933       0.00051155      10.03314279      -0.03074731      -0.03296180      -0.01494968
Pt       7.84085882       0.00025663      10.03324447      -0.00823807      -0.00771305      -0.02311010
Pt      11.76014971       0.00012603      10.03301243       0.02115324       0.01039497      -0.00538698
Pt      -0.00045899       2.77169617      10.03281063      -0.03320400      -0.01337102      -0.02816078
Pt       3.91933099       2.77155760      10.03333257      -0.05816118      -0.03819322      -0.07928717
Pt       7.84092102       2.77189738      10.03334779       0.04183108      -0.02532588       0.28473425
Pt      11.76020950       2.77199764      10.03312125       0.04676657      -0.03247226      -0.03531025
Pt      -0.00067646       5.54343560      10.03266872      -0.02399456       0.00517589      -0.01885441
Pt       3.91944019       5.54316180      10.03330615      -0.06899915       0.03590211      -0.12421385
Pt       7.84116953       5.54346102      10.03329025       0.03074757       0.02163146      -0.16575311
Pt      11.76006032       5.54353742      10.03301886       0.10157297       0.01162524      -0.05261146
Pt      -0.00056339       8.31577933      10.03265653      -0.00467015       0.00901120      -0.00645810
Pt       3.91937560       8.31598111      10.03315503      -0.03459316       0.01746319       0.10212730
Pt       7.84108897       8.31562417      10.03325936      -0.00465575       0.04939243      -0.02683538
Pt      11.76005018       8.31542812      10.03288058       0.07845798       0.04556843      -0.03940216
Pt       1.95651526       1.38004458      11.38332694       0.00198489      -0.00535561       0.00532681
Pt       5.87453518       1.38165262      11.37613303      -0.00420170      -0.00234536       0.00740401
Pt       9.79671414       1.38990586      11.38736251       0.00666276      -0.00848875       0.01553126
Pt      13.72232120       1.38627561      11.38594831      -0.01082460       0.00221372       0.00635011
Pt       1.95186684       4.15069726      11.37758890      -0.00151824      -0.00207359      -0.00117371
Pt       5.87623348       4.16096306      11.35475218      -0.00098756      -0.00282153       0.00235924
Pt       9.81269606       4.15992580      11.36819783       0.00336840      -0.00200083       0.00906777
Pt      13.72109953       4.15833697      11.38758166       0.00057876       0.00168844       0.00511495
Pt       1.95695470       6.92699988      11.38377475      -0.00674940      -0.00087932      -0.00898858
Pt       5.87860098       6.93313073      11.37508295      -0.00416519      -0.00031342      -0.00055613
Pt       9.81657951       6.94462112      11.36618932       0.01168798       0.00281227       0.00693169
Pt      13.72140624       6.93024345      11.38857828      -0.00318354      -0.00478688      -0.00348153
Pt       1.96190337       9.69786064      11.39003496      -0.00209931      -0.00070500      -0.00864842
Pt       5.87752747       9.70125245      11.38745465       0.00369545       0.00599607      -0.00340363
Pt       9.80150726       9.70846342      11.38506308       0.01153680       0.01177257       0.01087654
Pt      13.72199291       9.70282089      11.38662274      -0.00823833      -0.00701217      -0.00163574
Pt      -0.00001587      -0.00391988      12.74289126       0.00646992       0.00753179      -0.01149617
Pt       3.91866324      -0.00492825      12.74467133       0.00409500       0.00113283      -0.00297065
Pt       7.83630395       0.00397845      12.74101211      -0.00542451      -0.00076413      -0.00473906
Pt      11.76168872       0.00533676      12.73885631      -0.00501802       0.00051808       0.00993834
Pt       0.00042126       2.76991773      12.74225082      -0.00362526      -0.00215690       0.00250734
Pt       3.91386696       2.75415576      12.73588781       0.00206871       0.00131101      -0.00732919
Pt       7.82686444       2.79994085      12.73325197       0.00365791      -0.00367025      -0.00260453
Pt      11.76018175       2.77465681      12.74006928      -0.00248908      -0.00491981       0.00739064
Pt       0.00282670       5.54282159      12.74207768      -0.00423666      -0.00438939      -0.00094822
Pt       3.91019160       5.51110563      12.71932549       0.00939378       0.00339206       0.01315068
Pt       7.87900069       5.58723864      12.69921320      -0.01395980       0.00030853       0.02017622
Pt      11.76092424       5.54603508      12.74383828       0.00181186       0.00033707      -0.02160652
Pt       0.00263269       8.31310105      12.74113493      -0.00105055      -0.00055124       0.00690881
Pt       3.92106300       8.30134437      12.74842491       0.00664039      -0.00633366       0.01336922
Pt       7.84370246       8.32966122      12.73710968      -0.00023526      -0.00010670       0.00531036
Pt      11.76556901       8.32034189      12.74231271      -0.00826892       0.00818356      -0.00086878
O        6.00646720       6.62051713      15.62503011      -0.02083596      -0.00496043       0.01153397
O        7.06920639       3.18149420      15.03766489      -0.00880269       0.02514693       0.01857751
C        5.79784695       5.23226855      15.35606086       0.00538852      -0.00227980       0.01589739
C        4.61336702       4.83718702      16.22255307       0.00340491      -0.00955936       0.00653909
C        3.71273079       6.07702897      16.05482154      -0.00089140       0.00161414       0.00860985
C        4.71418057       7.21495054      15.75728288      -0.00853503       0.01397677       0.01456093
C        7.13784686       4.54374907      15.53849684       0.00584695      -0.00188513       0.01853354
H        5.47916510       5.10737924      14.27311311       0.00638251       0.00570554       0.00851369
H        4.93446223       4.70719032      17.26705836       0.00415876       0.00082584       0.01149463
H        4.13731494       3.91018042      15.87639124      -0.01441283       0.01059449       0.00528567
H        3.03797862       5.93829357      15.19011812      -0.00090451      -0.00672986       0.02478698
H        3.08693382       6.27777335      16.93312366       0.00939661       0.00948377      -0.00162828
H        4.44459553       7.73414562      14.77266001       0.00013113      -0.00914901       0.00468301
H        4.77463970       8.00106184      16.52110817       0.01408347      -0.00222040      -0.01053664
H        7.43695901       4.54653165      16.59881080      -0.01763623      -0.02124888      -0.00282693
H        7.90578634       5.11705833      14.95929418      -0.00960204      -0.02315484       0.00411402
H        7.73191724       2.64343342      15.51503312      -0.00768914      -0.01713949       0.02489933
