48
Lattice="15.680000118066197 0.0 0.0 0.0 11.087437843485434 0.0 0.0 0.0 22.771860331466005" Properties=species:S:1:pos:R:3:forces:R:3 energy=-42661.651607420834 free_energy=-42661.651607420834 pbc="T T T"
Pt      -0.00032242       0.00031933      10.03269599      -0.00025994      -0.00332726       0.00307067
Pt       3.91929933       0.00051155      10.03314279       0.00166530      -0.00378261       0.00025865
Pt       7.84085882       0.00025663      10.03324447      -0.00355918      -0.00292977      -0.00364325
Pt      11.76014971       0.00012603      10.03301243       0.00240989      -0.00011056      -0.00365097
Pt      -0.00045899       2.77169617      10.03281063       0.00082764       0.00011801       0.00190390
Pt       3.91933099       2.77155760      10.03333257       0.00051731       0.00161671      -0.00063095
Pt       7.84092102       2.77189738      10.03334779      -0.00328690      -0.00122616      -0.00464547
Pt      11.76020950       2.77199764      10.03312125       0.00205997      -0.00179643      -0.00320051
Pt      -0.00067646       5.54343560      10.03266872       0.00252379       0.00339771       0.00466295
Pt       3.91944019       5.54316180      10.03330615       0.00069060       0.00444158       0.00041240
Pt       7.84116953       5.54346102      10.03329025      -0.00610534       0.00316374      -0.00267369
Pt      11.76006032       5.54353742      10.03301886       0.00310435       0.00081453      -0.00398418
Pt      -0.00056339       8.31577933      10.03265653       0.00176095      -0.00033244       0.00397853
Pt       3.91937560       8.31598111      10.03315503       0.00124313      -0.00232659       0.00247726
Pt       7.84108897       8.31562417      10.03325936      -0.00550036       0.00054533      -0.00321414
Pt      11.76005018       8.31542812      10.03288058       0.00288632       0.00121845      -0.00291332
Pt       1.95946592       1.38602829      11.38599032      -0.00307093      -0.00124081      -0.00001286
Pt       5.88021980       1.38614930      11.38592511      -0.00461127      -0.00373838       0.00073765
Pt       9.80052737       1.38607412      11.38592275       0.00581558      -0.00157377       0.00079601
Pt      13.71981509       1.38607728      11.38577945       0.00104798      -0.00237776       0.00105647
Pt       1.95945238       4.15746830      11.38602213      -0.00191907       0.00316606       0.00013704
Pt       5.88023826       4.15736508      11.38612104      -0.00541500       0.00473520      -0.00006891
Pt       9.80062128       4.15774033      11.38608018       0.00494475      -0.00115545       0.00014064
Pt      13.71968118       4.15761600      11.38577086       0.00299508       0.00108938       0.00117088
Pt       1.95942521       6.92952974      11.38556178      -0.00299919       0.00180080       0.00172675
Pt       5.88035743       6.92943846      11.38570535      -0.00545588       0.00282539       0.00107678
Pt       9.80057842       6.92943633      11.38567831       0.00271791       0.00270840       0.00214841
Pt      13.71968957       6.92941020      11.38544659       0.00425955       0.00365379       0.00292334
Pt       1.95940563       9.70193529      11.38550371      -0.00319382      -0.00434285       0.00219444
Pt       5.88031050       9.70190709      11.38560622      -0.00493369      -0.00394793       0.00158431
Pt       9.80048757       9.70161179      11.38550249       0.00381243      -0.00005554       0.00277448
Pt      13.71980401       9.70172748      11.38528879       0.00335066      -0.00184297       0.00347690
Pt      -0.00033092       0.00067429      12.73912066      -0.00112717      -0.00709085      -0.00455137
Pt       3.91931319       0.00060442      12.73882039       0.00156015      -0.00586829      -0.00144470
Pt       7.84084146       0.00042587      12.73885031      -0.00295343      -0.00493086       0.00224997
Pt      11.76013157       0.00048869      12.73883869       0.00301410      -0.00369879       0.00265955
Pt      -0.00047495       2.77169428      12.73943117       0.00040315       0.00052785      -0.00378723
Pt       3.91934878       2.77158582      12.73916742       0.00043349       0.00134829      -0.00116600
Pt       7.84092676       2.77190936      12.73923594      -0.00293929      -0.00215536       0.00302747
Pt      11.76022735       2.77209959      12.73918297       0.00237827      -0.00295240       0.00184194
Pt      -0.00067976       5.54307454      12.73920776       0.00185916       0.00689853      -0.00570374
Pt       3.91946216       5.54315629      12.73887164       0.00028694       0.00506893      -0.00186174
Pt       7.84115674       5.54316592      12.73913741      -0.00564100       0.00625704       0.00095439
Pt      11.76003125       5.54313279      12.73902320       0.00415207       0.00449737       0.00296911
Pt      -0.00044216       8.31577416      12.73885112       0.00015709      -0.00013807      -0.00513501
Pt       3.91950269       8.31571654      12.73860252      -0.00007842      -0.00013395      -0.00394099
Pt       7.84099364       8.31555638      12.73870995      -0.00427960       0.00110583       0.00194735
Pt      11.75997969       8.31534164      12.73870636       0.00445212       0.00207719       0.00187022
