76
Lattice="15.680000118066197 0.0 0.0 0.0 11.087437843485434 0.0 0.0 0.0 22.771860331466005" Properties=species:S:1:pos:R:3:forces:R:3 energy=-44914.90172412977 free_energy=-44914.90172412977 pbc="T T T"
Pt      -0.00032242       0.00031933      10.03269599      -0.00851318       0.00160385       0.00023937
Pt       3.91929933       0.00051155      10.03314279      -0.03025186       0.02850042      -0.00507099
Pt       7.84085882       0.00025663      10.03324447       0.02709788       0.03611860      -0.01527698
Pt      11.76014971       0.00012603      10.03301243       0.02950444       0.01751564      -0.01195949
Pt      -0.00045899       2.77169617      10.03281063      -0.01774267      -0.01265934      -0.01260406
Pt       3.91933099       2.77155760      10.03333257      -0.03637005      -0.03706194      -0.02750463
Pt       7.84092102       2.77189738      10.03334779       0.03086069      -0.03777568      -0.03619753
Pt      11.76020950       2.77199764      10.03312125       0.04473488      -0.01970571      -0.02314996
Pt      -0.00067646       5.54343560      10.03266872      -0.00806169      -0.00712324      -0.00466835
Pt       3.91944019       5.54316180      10.03330615      -0.07703771      -0.00917704       0.04647089
Pt       7.84116953       5.54346102      10.03329025       0.05961283      -0.00066257       0.02125685
Pt      11.76006032       5.54353742      10.03301886       0.05512445      -0.01619152      -0.03505365
Pt      -0.00056339       8.31577933      10.03265653      -0.00912947       0.00770894      -0.00542451
Pt       3.91937560       8.31598111      10.03315503      -0.07053796       0.01396675       0.05067002
Pt       7.84108897       8.31562417      10.03325936       0.05535534       0.01164838       0.05731503
Pt      11.76005018       8.31542812      10.03288058       0.05005089       0.02417763      -0.02668831
Pt       1.96034015       1.38515725      11.38913448      -0.00300896      -0.00621153      -0.00050265
Pt       5.88128116       1.38701470      11.38668507      -0.01116964      -0.00602949      -0.00836663
Pt       9.80104933       1.38766001      11.38839186       0.00797196      -0.00987561       0.00055536
Pt      13.72074743       1.38606324      11.38600642      -0.00203786      -0.00406337       0.01022322
Pt       1.95769327       4.15329010      11.38378262       0.00693504       0.00099116      -0.00157300
Pt       5.87849610       4.14838789      11.36945934       0.00023371      -0.00506533      -0.00452206
Pt       9.80777806       4.15283276      11.37879204       0.00024143      -0.01107400      -0.00374430
Pt      13.72129618       4.15777523      11.38803699      -0.00787760       0.00392299       0.00416339
Pt       1.95909773       6.92885470      11.38202115      -0.00272563       0.01161727      -0.00348950
Pt       5.87752720       6.93015972      11.35492435       0.00275777       0.01486560      -0.00666301
Pt       9.80967478       6.93188663      11.37310634      -0.00387902       0.01218137      -0.00419064
Pt      13.72029305       6.92854434      11.38829423      -0.00188693       0.00844453       0.00370085
Pt       1.95929264       9.70317285      11.38616479       0.00653214       0.00511135      -0.00044223
Pt       5.87932650       9.71254395      11.37251010      -0.00794137      -0.00345916      -0.00430634
Pt       9.80509054       9.70837860      11.38109659       0.00243021       0.00354684       0.00083921
Pt      13.72048434       9.70077589      11.38721526      -0.00547748      -0.00157660       0.00796296
Pt      -0.00007355      -0.00337125      12.73971377       0.00071374       0.00753333       0.00437525
Pt       3.92476590       0.00644262      12.74588769      -0.00205277      -0.00507022      -0.00779610
Pt       7.83752907       0.00929503      12.74428121       0.00372553      -0.00607115      -0.00655348
Pt      11.76115870       0.00224288      12.74080175       0.00449017      -0.00685893       0.00267832
Pt       0.00092116       2.77034409      12.73990712      -0.00524916      -0.00319922       0.01054949
Pt       3.92358956       2.76551702      12.74427123      -0.00340388      -0.00663267       0.00065203
Pt       7.83896903       2.76809598      12.74128217       0.00251557      -0.00544123      -0.00301076
Pt      11.76219042       2.77466930      12.74129796       0.00008587      -0.01141981       0.00269374
Pt       0.00414448       5.54248364      12.74027005      -0.00421430       0.00263410      -0.00354838
Pt       3.92991081       5.53020942      12.72906750      -0.00382889       0.00785755       0.00601998
Pt       7.83967766       5.53420196      12.70786940      -0.00456808       0.00538620       0.00395796
Pt      11.75736151       5.54514210      12.74014150       0.00910196       0.00402429       0.00750659
Pt       0.00344804       8.31154569      12.73890106      -0.00249808       0.01118918       0.00574307
Pt       3.93352085       8.32799164      12.73422947       0.00058930       0.00979307      -0.00401992
Pt       7.83441323       8.33400178      12.71976644      -0.00051371      -0.00048620       0.01056646
Pt      11.75747092       8.31616833      12.74069834       0.00510004       0.00111020      -0.00321594
O        6.12165530       9.71152955      16.07536004      -0.01239657       0.00511238       0.00223300
C        6.10510556       5.39814745      16.12916103      -0.00071425      -0.00379803      -0.01072664
C        4.82798771       6.11523695      15.66659854      -0.00648432      -0.00935984       0.00239318
C        7.38214418       6.11503536      15.67846628      -0.00125881       0.00589374      -0.00220164
C        4.85027406       7.64939838      15.68471897       0.00409320      -0.00526665      -0.00352293
C        7.39045603       7.64120948      15.72386595      -0.00969409       0.00340208      -0.00106032
C        6.11570034       8.29449880      16.25240819      -0.00334989      -0.00011596       0.00933439
C        6.11278444       5.12726981      17.65120813      -0.00178615       0.00378184      -0.00793237
C        5.08977198       4.07930871      18.11686261      -0.00227388       0.00653472       0.00772951
C        5.25825752       2.70177568      17.46598163      -0.00110429       0.00451357       0.00211962
H        6.11943140       4.41269265      15.63742957       0.00313315      -0.01119844      -0.00125624
H        3.95794721       5.72589357      16.21017479       0.00069908      -0.00164653      -0.00613594
H        4.63259478       5.78200414      14.58899719       0.00518592       0.01379140       0.00515018
H        7.54997133       5.80615235      14.58004933       0.00984912      -0.01434676       0.00658948
H        8.25828476       5.68507171      16.18159293       0.00652032       0.00401195       0.00264515
H        4.77161276       8.02788678      14.61307933       0.00573279      -0.01316842      -0.01478719
H        3.96973498       8.07076211      16.18539520       0.00411814      -0.00486067       0.00296757
H        8.27140935       8.04679489      16.23800598      -0.02164895      -0.00515815       0.01242974
H        7.51199313       8.03729866      14.65116565      -0.02249844       0.01096524      -0.00307118
H        6.10425858       8.16110625      17.34893352      -0.01108480       0.02206007       0.01678288
H        5.96029136       6.06705830      18.20662678      -0.00612591      -0.00825787       0.00559806
H        7.12068291       4.77045263      17.92282791      -0.00295188       0.00115828       0.00204891
H        4.06470357       4.44576685      17.94838336      -0.01579994       0.00235796      -0.00499257
H        5.18939066       3.98201700      19.20820579       0.00126704      -0.01297199       0.02289876
H        6.10076104       9.89805999      15.11004669       0.01050604      -0.01219988      -0.01391352
H        4.97329672       2.70126051      16.40370343       0.00532193      -0.00049802      -0.00165322
H        6.30026355       2.35370461      17.52723730       0.00018795      -0.00269657       0.00192524
H        4.63352719       1.94997179      17.96632197      -0.01323038       0.00340363      -0.02018933
