70
Lattice="15.680000118066197 0.0 0.0 0.0 11.087437843485434 0.0 0.0 0.0 22.771860331466005" Properties=species:S:1:pos:R:3:forces:R:3 energy=-44819.38336038554 free_energy=-44819.38336038554 pbc="T T T"
Pt      -0.00032242       0.00031933      10.03269599       0.01108634       0.00661493       0.01501267
Pt       3.91929933       0.00051155      10.03314279      -0.07644867       0.06178052      -0.04796419
Pt       7.84085882       0.00025663      10.03324447       0.07510167       0.05225716      -0.05185864
Pt      11.76014971       0.00012603      10.03301243      -0.00078470       0.00770020       0.00051062
Pt      -0.00045899       2.77169617      10.03281063       0.00328201       0.00243252       0.01885801
Pt       3.91933099       2.77155760      10.03333257      -0.08539045      -0.06963447      -0.05761765
Pt       7.84092102       2.77189738      10.03334779       0.07088866      -0.06226646      -0.05993987
Pt      11.76020950       2.77199764      10.03312125      -0.01923802      -0.00400115       0.02258020
Pt      -0.00067646       5.54343560      10.03266872       0.00906854      -0.06547417       0.00040032
Pt       3.91944019       5.54316180      10.03330615      -0.27798510      -0.18634944      -0.03247920
Pt       7.84116953       5.54346102      10.03329025       0.23473555      -0.19323049       0.16673373
Pt      11.76006032       5.54353742      10.03301886       0.00452874      -0.05218285      -0.00903691
Pt      -0.00056339       8.31577933      10.03265653       0.02081591       0.05616241       0.00879240
Pt       3.91937560       8.31598111      10.03315503      -0.26727312       0.17900843       0.00704405
Pt       7.84108897       8.31562417      10.03325936       0.23710173       0.16763721       0.08841895
Pt      11.76005018       8.31542812      10.03288058       0.01077241       0.03777156      -0.00983473
Pt       1.96789628       1.38428797      11.38578344      -0.01609922       0.00968920       0.00323599
Pt       5.87994396       1.38295713      11.38532923      -0.00072685       0.00280996       0.00459456
Pt       9.79753567       1.38369760      11.38312195       0.00069754       0.00850881      -0.00625575
Pt      13.71812032       1.38634211      11.38866106       0.01782186       0.00048105      -0.00055536
Pt       1.97592279       4.15948525      11.39646989      -0.00383274      -0.00152981       0.00490104
Pt       5.87985828       4.13840615      11.32543552       0.00199723      -0.00814680       0.00218107
Pt       9.78405769       4.16291640      11.39465710      -0.01416421       0.00418576       0.00008125
Pt      13.71879884       4.15678183      11.38717060       0.01308152       0.00548416       0.00402069
Pt       1.95900392       6.92884361      11.36305313       0.00932179       0.00091351       0.01098452
Pt       5.88021166       6.92924592      11.22947510       0.00570913       0.00428217      -0.00476528
Pt       9.79695206       6.92322445      11.36030537      -0.01105369       0.00411711       0.01280898
Pt      13.71984488       6.92850054      11.38988333      -0.00126164      -0.00344502       0.00159640
Pt       1.97809414       9.70076547      11.40133756      -0.00152569      -0.00182934      -0.00744154
Pt       5.88230089       9.71548949      11.33047681      -0.00085001       0.00326170      -0.00010387
Pt       9.78769248       9.69464184      11.39024630      -0.00277062      -0.00267986      -0.01066802
Pt      13.71895438       9.70178577      11.38864793       0.00677691      -0.00922126      -0.00564923
Pt       0.00803538      -0.00092364      12.73437335      -0.00740092      -0.00361189       0.01428711
Pt       3.94584244      -0.00390412      12.76283306      -0.00393919       0.01000879      -0.00497688
Pt       7.83487455      -0.00207168      12.74399158       0.00788377       0.01472728       0.00035584
Pt      11.75063429      -0.00314864      12.73694189       0.00967403      -0.01028210       0.01160107
Pt       0.00750394       2.77374709      12.73678071       0.00339463      -0.00062452      -0.01375772
Pt       3.93190711       2.76102076      12.74991204       0.00217798       0.00190853       0.00814500
Pt       7.84103110       2.75486118      12.74482172      -0.00302310       0.00507176      -0.00159511
Pt      11.75153195       2.77423500      12.73905789      -0.00198721       0.00327224      -0.00982881
Pt       0.01087036       5.54289859      12.73626044      -0.00433102       0.00608143      -0.01414544
Pt       3.99367270       5.57045338      12.75170686       0.00065923      -0.00743203       0.01183864
Pt       7.76371140       5.55808880      12.78086047      -0.00986532       0.00086903       0.00162879
Pt      11.74822910       5.54302773      12.73752138       0.00739784       0.01147458      -0.01520782
Pt       0.01033985       8.31296373      12.73444303      -0.00038207       0.00136577       0.00296114
Pt       3.98397088       8.29822470      12.75717740      -0.00675043       0.00390319      -0.00395744
Pt       7.79438422       8.28956444      12.75956308      -0.00336326       0.00755853      -0.00761432
Pt      11.74756078       8.31011397      12.73565870       0.00819308      -0.00292489      -0.00247392
O        6.08387849       9.68786671      15.15532100       0.00625858      -0.00240578      -0.00641105
C        6.08087779       4.07238344      15.27344803       0.00761509       0.00086106      -0.00476760
C        5.97334852       3.91647645      16.79849839      -0.00266675      -0.00186482      -0.01681733
C        6.12204181       5.50425701      14.81277634       0.00904874      -0.00073174      -0.00533273
C        4.85167690       6.18878570      14.62561579       0.00057207      -0.00075128       0.00438476
C        7.35618910       6.22341719      14.81248317       0.00727468       0.00414410      -0.00855252
C        5.85367312       2.44347368      17.19213000       0.00257496       0.00375304       0.00429194
C        4.82161945       7.69209438      14.62906290      -0.00021854       0.00228494      -0.00243072
C        7.35336090       7.71714620      14.79460090       0.01001573       0.00731299       0.00137194
C        6.08542006       8.38674117      14.81717558       0.00000257       0.00551090       0.00745286
H        5.22620641       3.55754677      14.78881673       0.01050604       0.00805758      -0.00653934
H        6.98513943       3.53368969      14.91744899      -0.00340800      -0.01187284      -0.01101512
H        6.85790223       4.37059260      17.27419652      -0.01926425      -0.00600404       0.00687590
H        5.09806397       4.47877443      17.16300142       0.00594362      -0.00378312       0.01111925
H        4.04919998       5.74585710      15.23566621       0.01349675      -0.01139719       0.00918244
H        8.19468213       5.75849031      15.34231876       0.00579604       0.02306537       0.00079473
H        4.94893794       1.99424256      16.75663234       0.00519877      -0.00078367       0.00163625
H        6.71602669       1.86608304      16.82908649       0.00654166      -0.00697669      -0.00325373
H        5.80137861       2.32384875      18.28253969      -0.00675634      -0.00005605      -0.00196844
H        4.04662883       8.10891596      15.28882849      -0.01743851      -0.01386570       0.00267215
H        8.15214830       8.20992412      15.35800920       0.01802549       0.01247294      -0.01937738
H        5.28241474      10.13237992      14.75191445      -0.01083951      -0.00344348      -0.00916135
