75
Lattice="15.680000118066197 0.0 0.0 0.0 11.087437843485434 0.0 0.0 0.0 22.771860331466005" Properties=species:S:1:pos:R:3:forces:R:3 energy=-44475.02469269446 free_energy=-44475.02469269446 pbc="T T T"
Pt      -0.00032242       0.00031933      10.03269599      -0.03117077       0.01169466      -0.01725390
Pt       3.91929933       0.00051155      10.03314279      -0.01462906       0.04042237      -0.01621980
Pt       7.84085882       0.00025663      10.03324447       0.01651497       0.04970842      -0.02701972
Pt      11.76014971       0.00012603      10.03301243       0.02398402       0.01739428      -0.01094339
Pt      -0.00045899       2.77169617      10.03281063      -0.02213308      -0.00246183      -0.01268762
Pt       3.91933099       2.77155760      10.03333257       0.00492006      -0.01298767       0.01878217
Pt       7.84092102       2.77189738      10.03334779      -0.00701191       0.00658177       0.03490735
Pt      11.76020950       2.77199764      10.03312125       0.00213659       0.01465066       0.00335632
Pt      -0.00067646       5.54343560      10.03266872      -0.04135774      -0.00229008      -0.02534748
Pt       3.91944019       5.54316180      10.03330615      -0.03375678      -0.01560428      -0.02519347
Pt       7.84116953       5.54346102      10.03329025       0.02279746      -0.03265918      -0.02908380
Pt      11.76006032       5.54353742      10.03301886       0.02034025      -0.01026333      -0.00722017
Pt      -0.00056339       8.31577933      10.03265653      -0.02173816       0.01069630      -0.01700913
Pt       3.91937560       8.31598111      10.03315503      -0.05223299       0.02283448       0.05896774
Pt       7.84108897       8.31562417      10.03325936       0.04123227       0.02577634       0.14050256
Pt      11.76005018       8.31542812      10.03288058       0.02970164       0.01016897      -0.01414132
Pt       1.95731756       1.38814821      11.38666630       0.02142012      -0.00214559       0.00452386
Pt       5.88057710       1.39329797      11.39359727      -0.00713095      -0.00472954      -0.01278841
Pt       9.80147396       1.39097397      11.38637749      -0.01397137      -0.00388519       0.00388262
Pt      13.72003175       1.38835825      11.38605373      -0.00330541      -0.00636888       0.00725617
Pt       1.95523947       4.15608341      11.37833142      -0.00031342      -0.01136813       0.01038366
Pt       5.87744955       4.15900858      11.38718156      -0.00119993      -0.01192401      -0.01625349
Pt       9.79857950       4.16274738      11.39010796       0.00258344      -0.01229167      -0.00113591
Pt      13.72006206       4.16041336      11.38682709      -0.00068340      -0.00924183       0.00874998
Pt       1.95537281       6.93188912      11.37612791      -0.01691220      -0.00248317       0.00725797
Pt       5.87822788       6.92957619      11.36255939      -0.00438219      -0.00090940       0.00088934
Pt       9.80414926       6.93258259      11.37901673       0.02334022       0.00274645      -0.00412611
Pt      13.72024876       6.93036801      11.38874129      -0.00241041       0.00308481       0.00125187
Pt       1.95673052       9.70630727      11.38204324       0.01077549       0.00791900       0.00655606
Pt       5.88349241       9.71325568      11.37007417      -0.01186770       0.00820619       0.01212198
Pt       9.80241082       9.70838894      11.38068849       0.00628223       0.00524891       0.00581635
Pt      13.72011297       9.70187014      11.38729637      -0.00530444       0.00877672       0.00176069
Pt      -0.00181318       0.00217404      12.73988713       0.00565463      -0.00544328       0.00582175
Pt       3.92010029       0.01446150      12.73951230       0.00578190       0.00261404      -0.00961130
Pt       7.84020533       0.01590981      12.74121960      -0.00431225       0.00112434       0.00079704
Pt      11.76036381       0.00336524      12.73997942      -0.00151387      -0.00353192       0.00386617
Pt      -0.00051736       2.77420427      12.74097579      -0.00726825      -0.00145267       0.00308944
Pt       3.91665785       2.77706424      12.74747048       0.00333472      -0.00501494      -0.01138613
Pt       7.84298650       2.77848639      12.74608763      -0.00641336      -0.00198438      -0.00683733
Pt      11.75990541       2.77586644      12.74055557       0.00539880       0.00008459       0.00348102
Pt       0.00254075       5.54535560      12.74103187      -0.00372424       0.00582612      -0.00708673
Pt       3.90256223       5.53644315      12.73217259       0.00678771      -0.00527410       0.00784932
Pt       7.83719791       5.55522371      12.73223236       0.00336840      -0.00231194       0.00651903
Pt      11.75847612       5.54702686      12.74184998      -0.00171750       0.00465138      -0.00560629
Pt       0.00198749       8.31703795      12.73972526       0.00310486       0.00180543       0.00208902
Pt       3.92528560       8.32493351      12.72609218      -0.00156220       0.00740889      -0.00355815
Pt       7.84121670       8.33135235      12.73669952      -0.00630280       0.00483984      -0.00048362
Pt      11.75784783       8.31850733      12.74019071      -0.00294340       0.00150384      -0.00130766
C        6.31853526       5.91141105      15.54403747       0.00983241      -0.01056646       0.00490978
C        4.95259165       6.54532487      15.81717648       0.00019283      -0.01506795      -0.00307350
C        7.44375821       6.68349628      16.23918517       0.00144033      -0.00181288      -0.00024400
C        4.90555936       8.04747208      15.55570090      -0.00226309      -0.01102283       0.00247983
C        7.41913370       8.16925434      15.88780110       0.00383583       0.00308327      -0.00298968
C        6.07146506       8.83021641      16.15843456      -0.00054019      -0.00660156       0.00710422
C        6.33585461       4.39751068      15.78309280       0.00683014      -0.00716849      -0.00852809
C        6.15211631       3.91336564      17.22328169       0.00093871      -0.00041986      -0.01384205
C        6.14799469       2.38493239      17.29769986      -0.00224380      -0.00226334      -0.00540009
H        6.51086708       6.03396755      14.43421289       0.01176588       0.01045153       0.00359440
H        4.65991746       6.34982069      16.86353019       0.00918861       0.00746366       0.01227547
H        4.18335629       6.03872324      15.19164822      -0.00314497      -0.00381089      -0.02247221
H        8.41604215       6.24297985      15.96952170       0.01434804       0.00252405       0.00922769
H        7.34133328       6.58087477      17.33433979      -0.00013215       0.01047699       0.00418421
H        3.94143221       8.47525257      15.85997524      -0.00075873      -0.00048208       0.00606292
H        4.97149006       8.20069319      14.42626695       0.00500491       0.00473263      -0.00726234
H        7.65352680       8.27588050      14.77077717      -0.01577140      -0.01655996      -0.01901305
H        8.23609609       8.71636043      16.37859675       0.01159259       0.00440867      -0.01945271
H        6.06428765       9.86657056      15.78673551       0.00565308      -0.00503165      -0.01319002
H        5.92257535       8.89571074      17.25145112       0.00851961      -0.02140855       0.01846309
H        7.29088815       3.99699688      15.39260529       0.01084363      -0.00961953       0.00463390
H        5.55494360       3.94221310      15.14464630      -0.00886671       0.01048162       0.00667047
H        5.20889230       4.30013956      17.64135437      -0.00281433      -0.00364608      -0.01921977
H        6.95669010       4.31241291      17.86196616       0.00368825      -0.01035383      -0.01873640
H        5.31684884       1.96746163      16.70916542       0.01206182      -0.01243771      -0.00701603
H        7.08186945       1.96911429      16.88991668      -0.00512909      -0.00820696      -0.00427035
H        6.04323891       2.02868629      18.33119686      -0.00626115      -0.01628331       0.00692655
