48
Lattice="10.931999950290717 0.0 0.0 5.465999975145358 9.467385256950518 0.0 0.0 0.0 24.314003205440937" Properties=species:S:1:pos:R:3:forces:R:3 energy=-128690.98814721013 free_energy=-128690.98814721013 pbc="T T T"
Ru       0.00047608       0.00031005      10.09588183      -0.00293620      -0.00385074      -0.00043889
Ru       2.73188120       0.00040297      10.09617686       0.00770971      -0.00443078       0.00057336
Ru       5.46566882      -0.00005913      10.09637430       0.00179386      -0.00036638       0.00217670
Ru       8.20001473      -0.00033284      10.09616409      -0.00687642       0.00243895       0.00213427
Ru       1.36629981       2.36626461      10.09592305       0.00139971       0.00326762      -0.00157660
Ru       4.09849487       2.36683663      10.09612927       0.00845842       0.00013524       0.00406800
Ru       6.83248611       2.36672497      10.09636258       0.00026714       0.00189156       0.00271766
Ru       9.56671794       2.36610528      10.09618193      -0.01016177       0.00643059      -0.00035635
Ru       2.73265229       4.73357443      10.09576582       0.00326453       0.00170027       0.00566723
Ru       5.46541409       4.73414677      10.09623705       0.00492752      -0.00343037       0.00468532
Ru       8.19911507       4.73397648      10.09645380      -0.00040752      -0.00272048       0.00105184
Ru      10.93280360       4.73316819      10.09606682      -0.00786423       0.00545794       0.00433874
Ru       4.09964486       7.10087069      10.09592735       0.00002828      -0.00202269       0.00258653
Ru       6.83207981       7.10150799      10.09626966       0.00264515      -0.00624650       0.00028668
Ru       9.56520066       7.10074774      10.09632269       0.00292283      -0.00138788       0.00229008
Ru      12.29907141       7.10006569      10.09594573      -0.00559009       0.00310564       0.00630563
Ru       0.00048238       1.57755849      12.15688734      -0.00661879       0.00124827       0.00020775
Ru       2.73221248       1.57787046      12.15704282       0.01213895      -0.00286369      -0.00066437
Ru       5.46569975       1.57788483      12.15690028       0.00136886       0.00285212       0.00275879
Ru       8.19958986       1.57783562      12.15685825      -0.00657123       0.00015555       0.00082018
Ru       1.36667700       3.94404435      12.15691528      -0.00310615       0.01171472       0.00166967
Ru       4.09892845       3.94473118      12.15693439       0.01004710       0.00041600       0.00273334
Ru       6.83259851       3.94486067      12.15682201      -0.00530599      -0.00072737       0.00391450
Ru       9.56577598       3.94431031      12.15696834      -0.00139508       0.00640667      -0.00104412
Ru       2.73336681       6.31150914      12.15696028      -0.00508076       0.00090451       0.00158123
Ru       5.46588041       6.31225778      12.15704957       0.00122590      -0.00939481      -0.00071220
Ru       8.19875988       6.31195665      12.15705382       0.00201112      -0.00314909      -0.00175066
Ru      10.93201382       6.31151336      12.15696217       0.00161954      -0.00092380       0.00236696
Ru       4.10029574       8.67850958      12.15696933      -0.00811054      -0.00086903      -0.00083921
Ru       6.83207681       8.67892043      12.15700419       0.00588268      -0.00460690      -0.00018306
Ru       9.56493182       8.67858273      12.15711799       0.00356072      -0.00005888      -0.00217618
Ru      12.29869549       8.67835522      12.15694171      -0.00108243      -0.00083972       0.00148378
Ru       0.00046173       0.00020682      14.21819591      -0.00391116      -0.00278065      -0.00118271
Ru       2.73212241       0.00019616      14.21825100       0.00701320      -0.00124056      -0.00404460
Ru       5.46528291      -0.00007289      14.21782824       0.00647404       0.00147427      -0.00421712
Ru       8.20014130      -0.00023231      14.21778711      -0.00974525       0.00161131      -0.00306013
Ru       1.36630704       2.36608826      14.21802620       0.00214121       0.00697926       0.00108989
Ru       4.09836285       2.36643291      14.21787634       0.01148383       0.00512807      -0.00372707
Ru       6.83269308       2.36661478      14.21751555      -0.00270454       0.00362371      -0.00252559
Ru       9.56664662       2.36611422      14.21779662      -0.01091485       0.00690444      -0.00151207
Ru       2.73279666       4.73351472      14.21788050       0.00278039       0.00245566      -0.00173909
Ru       5.46556702       4.73442804      14.21768876       0.00275879      -0.00829258      -0.00372321
Ru       8.19923152       4.73417863      14.21767043      -0.00254951      -0.00653009      -0.00281407
Ru      10.93238700       4.73304397      14.21781218      -0.00289249       0.00738215      -0.00321491
Ru       4.09986997       7.10101803      14.21804081      -0.00385820      -0.00495940      -0.00246440
Ru       6.83235118       7.10155922      14.21812680      -0.00049082      -0.00790717      -0.00400861
Ru       9.56476351       7.10096534      14.21806134       0.00873044      -0.00425646      -0.00567211
Ru      12.29900867       7.10032020      14.21787162      -0.00447989       0.00017124      -0.00386154
