61
Lattice="10.931999950290717 0.0 0.0 5.465999975145358 9.467385256950518 0.0 0.0 0.0 24.314003205440937" Properties=species:S:1:pos:R:3:forces:R:3 energy=-130513.70370751839 free_energy=-130513.70370751839 pbc="T T T"
Ru       0.00047608       0.00031005      10.09588183       0.00652983       0.00902509      -0.04636547
Ru       2.73188120       0.00040297      10.09617686       0.02233363      -0.02000473      -0.06892459
Ru       5.46566882      -0.00005913      10.09637430       0.02091310       0.06362632       0.02990322
Ru       8.20001473      -0.00033284      10.09616409      -0.01182913       0.00815297      -0.05635498
Ru       1.36629981       2.36626461      10.09592305       0.00884434       0.01026436      -0.05528823
Ru       4.09849487       2.36683663      10.09612927       0.04501539      -0.00370419       0.03383572
Ru       6.83248611       2.36672497      10.09636258      -0.03407149       0.01635016       0.10107624
Ru       9.56671794       2.36610528      10.09618193      -0.01675254       0.01667566      -0.04079338
Ru       2.73265229       4.73357443      10.09576582       0.03898281      -0.01315479       0.00893664
Ru       5.46541409       4.73414677      10.09623705      -0.00913693      -0.01878422       0.12835178
Ru       8.19911507       4.73397648      10.09645380      -0.05946936      -0.03012073       0.03251366
Ru      10.93280360       4.73316819      10.09606682      -0.00393302      -0.00553636      -0.06280099
Ru       4.09964486       7.10087069      10.09592735      -0.00196818       0.00411788      -0.03643793
Ru       6.83207981       7.10150799      10.09626966       0.01205616       0.00154446      -0.07592673
Ru       9.56520066       7.10074774      10.09632269       0.00098807       0.01074078      -0.05200570
Ru      12.29907141       7.10006569      10.09594573       0.00115854       0.01470594      -0.07410922
Ru       0.00429101       1.58030786      12.15413065      -0.01828466       0.00686382       0.01854202
Ru       2.73548688       1.57622592      12.15110208      -0.00800590       0.01606400       0.00744823
Ru       5.46839014       1.58077773      12.16672095       0.00088832       0.01010726       0.00143262
Ru       8.19558717       1.57974590      12.14959146      -0.01095856       0.01254056       0.02545135
Ru       1.36640490       3.94362791      12.15107464      -0.00322519       0.00200520       0.00928220
Ru       4.09178037       3.93852760      12.15559797       0.00845507      -0.00031213       0.00788454
Ru       6.82780541       3.94526171      12.16223537       0.01242717      -0.02094601      -0.00264798
Ru       9.56576130       3.94611517      12.15146878      -0.00367616       0.00058287       0.01035975
Ru       2.73359748       6.31267923      12.14979273       0.00804575      -0.00184168      -0.00076696
Ru       5.46786421       6.31917338      12.15142441      -0.00888522      -0.01613496       0.01463420
Ru       8.19836710       6.31437964      12.15055689       0.00123336      -0.00749142       0.01904005
Ru      10.93513527       6.31168996      12.14722159      -0.00803264       0.00494629       0.01426165
Ru       4.09930865       8.68237420      12.15199849      -0.00493703      -0.00518232       0.01060451
Ru       6.83784417       8.68201323      12.15530259      -0.01542199      -0.00742586       0.01129126
Ru       9.56775055       8.68052639      12.15066169      -0.00413331      -0.00072994       0.01449717
Ru      12.30109591       8.67962195      12.15068934       0.00279402       0.00822213      -0.00165219
Ru       0.00422356       0.00431081      14.21345121      -0.01031090       0.00166839       0.00676714
Ru       2.74416632      -0.00797732      14.21943213      -0.01360396       0.01974093      -0.01107606
Ru       5.46576202      -0.03630087      14.21125848      -0.00997434       0.00269580       0.01080403
Ru       8.20399140      -0.01264110      14.21052659       0.00440636      -0.00452643       0.01567859
Ru       1.36506140       2.37393877      14.21977936      -0.00096236       0.01059886      -0.00180954
Ru       4.07507073       2.34926022      14.24762244      -0.01011498       0.00151155      -0.02201250
Ru       6.86033121       2.36459255      14.26548473      -0.00172624      -0.01638333      -0.00183191
Ru       9.58813110       2.36887182      14.20324823       0.00831880      -0.01043302       0.01151674
Ru       2.69887471       4.74708019      14.21011446      -0.00883894      -0.00312646       0.00210625
Ru       5.44699115       4.78038006      14.24081773      -0.00065177      -0.00686433      -0.02408764
Ru       8.23813991       4.75963906      14.20422176       0.00867259      -0.00030159      -0.00894410
Ru      10.93480706       4.73092173      14.21463773       0.01551327      -0.00038695       0.00057104
Ru       4.08730026       7.12018785      14.20966433      -0.00748320       0.00236541       0.01262669
Ru       6.84493420       7.12182979      14.21349476      -0.01468280       0.00368799      -0.00484884
Ru       9.57132690       7.09992069      14.21157810       0.00036073       0.01012320       0.01320313
Ru      12.30040265       7.10093743      14.21365735       0.00219315      -0.00651980       0.00670955
O        6.77082492       4.78101994      16.95971754       0.00764620      -0.01728835      -0.01266628
O        9.58120762       2.50371595      17.40097314       0.00010696      -0.02104242       0.00438527
C        7.46968352       3.63263319      16.94835934       0.00496043      -0.01490109       0.00993371
C        8.83170745       3.68816806      17.57809400       0.00540446      -0.00525971       0.01484581
C        6.69524401       2.54046459      16.51592514       0.01702996      -0.01212969      -0.00945266
C        5.39106871       3.08903898      16.15167414       0.00558572      -0.00778504       0.02387115
C        5.47612889       4.52782264      16.35634283       0.00074459      -0.00946937      -0.00815194
H        9.35219121       4.59073631      17.21110940       0.00091506       0.01094159      -0.01179905
H        8.68982696       3.82739213      18.66499573      -0.01422823      -0.01713846       0.01055515
H        6.91268274       1.51198562      16.79462824       0.02070844      -0.00382246      -0.00539803
H        4.45425573       2.52552502      16.36512521      -0.00523374       0.02155767       0.01492423
H        4.70028464       5.10472586      16.86065602       0.01060760       0.01204073       0.01592284
H       10.11900782       2.59285321      16.56795485       0.01669340      -0.00471952       0.02238428
