59
Lattice="10.931999950290717 0.0 0.0 5.465999975145358 9.467385256950518 0.0 0.0 0.0 24.314003205440937" Properties=species:S:1:pos:R:3:forces:R:3 energy=-130481.83537013922 free_energy=-130481.83537013922 pbc="T T T"
Ru       0.00047608       0.00031005      10.09588183      -0.00135266       0.00197564      -0.00294597
Ru       2.73188120       0.00040297      10.09617686      -0.01124498      -0.02771392      -0.04053576
Ru       5.46566882      -0.00005913      10.09637430       0.01984043       0.01609459      -0.04513032
Ru       8.20001473      -0.00033284      10.09616409       0.01835691       0.03778159      -0.02005692
Ru       1.36629981       2.36626461      10.09592305      -0.03280573       0.00804164      -0.07026234
Ru       4.09849487       2.36683663      10.09612927       0.00071477       0.01577963      -0.06700835
Ru       6.83248611       2.36672497      10.09636258       0.01486432       0.02945790       0.12999318
Ru       9.56671794       2.36610528      10.09618193       0.01453625       0.01880171       0.04506295
Ru       2.73265229       4.73357443      10.09576582       0.01698702      -0.00480025      -0.02856727
Ru       5.46541409       4.73414677      10.09623705       0.02304557      -0.01666692       0.09652384
Ru       8.19911507       4.73397648      10.09645380      -0.00739424      -0.03513592       0.14026190
Ru      10.93280360       4.73316819      10.09606682      -0.06130281      -0.04145621       0.00524222
Ru       4.09964486       7.10087069      10.09592735       0.02787230      -0.00061604      -0.02523229
Ru       6.83207981       7.10150799      10.09626966       0.02772189      -0.05414306      -0.02482169
Ru       9.56520066       7.10074774      10.09632269      -0.01888887      -0.05077389      -0.02559867
Ru      12.29907141       7.10006569      10.09594573      -0.01975970       0.00538312      -0.05900399
Ru       0.00590516       1.57061647      12.15721288       0.00257136       0.00431174       0.00013498
Ru       2.73344433       1.57850269      12.15744314      -0.00715898      -0.00526151      -0.00818845
Ru       5.45517796       1.57246342      12.14502650      -0.00047334      -0.00729448       0.01183993
Ru       8.20764390       1.57522552      12.15492124      -0.00078959      -0.01181910       0.00083252
Ru       1.36762840       3.94317634      12.14816212       0.00021314       0.00191419      -0.00209236
Ru       4.09205476       3.93902771      12.14792819      -0.01004993      -0.00201060      -0.00792363
Ru       6.82653265       3.95329465      12.15446098       0.00624110       0.00519080       0.00864636
Ru       9.56580292       3.93761822      12.16075267      -0.00877106       0.00062298      -0.00804961
Ru       2.73521135       6.31308023      12.14556312      -0.00540472       0.00481670      -0.00530059
Ru       5.46937611       6.30795037      12.15728961       0.00090143       0.01208830      -0.01545722
Ru       8.19758825       6.30553529      12.15908734       0.00366536      -0.00455497      -0.00130046
Ru      10.93264925       6.31151803      12.15137568      -0.00438476      -0.00126755      -0.01266345
Ru       4.10055349       8.67816725      12.15395010      -0.00609763       0.00483162       0.00956810
Ru       6.83582014       8.67067113      12.15690874      -0.01000879       0.00658537       0.01155299
Ru       9.56625909       8.67262712      12.15023840       0.00667073       0.01153397       0.01675845
Ru      12.30200053       8.68278375      12.15015718       0.00032704       0.00627838      -0.00064149
Ru       0.01289226      -0.02690225      14.21314395       0.00958790      -0.00014810      -0.00428089
Ru       2.74538410      -0.01005167      14.21455595      -0.00541063       0.00169127      -0.00667458
Ru       5.46080364      -0.01976787      14.20746614       0.00237853       0.00461256      -0.00629432
Ru       8.20006453      -0.02273516      14.21516914       0.00355481       0.00404126       0.00144265
Ru       1.39020315       2.36610455      14.21373865       0.00197795      -0.00308327      -0.01630131
Ru       4.07158831       2.36066049      14.22747734       0.00711373       0.00335658      -0.00536615
Ru       6.83429765       2.35841877      14.20333023       0.00395616       0.00368053       0.01024250
Ru       9.60559592       2.37243844      14.24386185      -0.00755570       0.00462130       0.00754105
Ru       2.70675832       4.75413420      14.20525474       0.00004242       0.00110326      -0.00894513
Ru       5.41252670       4.77163154      14.26824733      -0.00436779       0.00911970       0.00879446
Ru       8.25240228       4.71649876      14.27981142       0.00632543       0.00376435      -0.00189156
Ru      10.96091826       4.76080964      14.19841275      -0.00440327       0.00866385      -0.00841239
Ru       4.08397399       7.11085727      14.21205555       0.00017175       0.01220657      -0.00631103
Ru       6.83796367       7.11460385      14.21842846      -0.00845816       0.01250919       0.00406311
Ru       9.57597812       7.11305086      14.21535788      -0.00473212       0.00937681      -0.00496789
Ru      12.30542971       7.11113645      14.20769820       0.00430223       0.00631643       0.01130900
O        6.87169874       5.05132622      16.84872800      -0.00020980      -0.00268783      -0.00319460
O        9.70806321       2.84262385      16.22612864       0.00566903       0.00351393       0.00955371
C        7.62148393       3.95772934      16.42422986      -0.01189829      -0.01038494       0.00924903
C        6.76740230       2.76835778      16.27862399      -0.00273822      -0.00321902       0.00563457
C        5.41952295       3.33986944      16.22396694       0.00417984       0.00451049       0.01001085
C        5.53600087       4.75797984      16.43935980       0.00249037       0.00460665      -0.00948429
C        9.03505403       3.99944702      16.38799598      -0.00121613       0.00228005       0.00837203
H        6.99229515       1.86079593      16.84343296      -0.01357568      -0.00542683      -0.00236207
H        4.51042200       2.78266561      16.49880367       0.01817641       0.00138428      -0.00469921
H        4.80331313       5.37312080      16.95745322      -0.00206640      -0.00289738      -0.01071944
H        9.55549624       4.83873617      16.86743370       0.01806277      -0.00148713       0.00805501
