70
Lattice="10.931999950290717 0.0 0.0 5.465999975145358 9.467385256950518 0.0 0.0 0.0 24.314003205440937" Properties=species:S:1:pos:R:3:forces:R:3 energy=-132271.99261346378 free_energy=-132271.99261346378 pbc="T T T"
Ru       0.00047608       0.00031005      10.09588183      -0.02257789      -0.02313659      -0.05199002
Ru       2.73188120       0.00040297      10.09617686      -0.04366916      -0.03663231      -0.12506874
Ru       5.46566882      -0.00005913      10.09637430      -0.00520391      -0.01493580      -0.14181948
Ru       8.20001473      -0.00033284      10.09616409      -0.00018795       0.03089078      -0.03690690
Ru       1.36629981       2.36626461      10.09592305      -0.03416533      -0.00294314      -0.05859904
Ru       4.09849487       2.36683663      10.09612927       0.01396186       0.00324113       0.01732564
Ru       6.83248611       2.36672497      10.09636258       0.02604553       0.06094929      -0.08439415
Ru       9.56671794       2.36610528      10.09618193      -0.03300294       0.07584600       0.04747619
Ru       2.73265229       4.73357443      10.09576582       0.05102997      -0.02732054       0.09021975
Ru       5.46541409       4.73414677      10.09623705       0.03175441      -0.01712226       0.08918771
Ru       8.19911507       4.73397648      10.09645380       0.00849621       0.02743264       0.09718847
Ru      10.93280360       4.73316819      10.09606682      -0.04154568       0.00881477       0.06844919
Ru       4.09964486       7.10087069      10.09592735       0.03655774      -0.05703890      -0.02974818
Ru       6.83207981       7.10150799      10.09626966       0.00850315      -0.03288621       0.05799432
Ru       9.56520066       7.10074774      10.09632269      -0.06226106      -0.04305338       0.05123900
Ru      12.29907141       7.10006569      10.09594573       0.00305576      -0.05652750      -0.04174906
Ru      -0.01183782       1.57690264      12.15055298      -0.00434954      -0.01137096       0.01162550
Ru       2.72490391       1.56731665      12.14950333       0.00125984       0.00331184       0.01240866
Ru       5.47675497       1.57109457      12.13629085       0.00376461       0.00149792       0.01759946
Ru       8.19712993       1.58062095      12.15768350      -0.00778144      -0.00040546      -0.00430197
Ru       1.36420569       3.93650188      12.14878092      -0.00251814       0.00928682      -0.01444986
Ru       4.10956542       3.93354044      12.15603315       0.01092205       0.00922229       0.00067697
Ru       6.83922568       3.94279044      12.15337239       0.00582072       0.01236649       0.00179977
Ru       9.56440923       3.95104025      12.16205210      -0.00745568      -0.00258447       0.00011673
Ru       2.73496117       6.31295370      12.15116748       0.01688315       0.01217777      -0.00908911
Ru       5.46382323       6.31070743      12.15070960       0.00586520       0.00841676      -0.01033249
Ru       8.18650526       6.31262518      12.15348103      -0.00004885      -0.00026174      -0.01618869
Ru      10.94287255       6.31025047      12.13802277      -0.00124081      -0.00306218      -0.00295240
Ru       4.09731040       8.67125581      12.15262036      -0.02260051      -0.00366022       0.02440594
Ru       6.82428800       8.67715365      12.15379727      -0.00777373      -0.02307796       0.01026127
Ru       9.56421690       8.69179913      12.13569173      -0.01260612      -0.00591122       0.00241889
Ru      12.29913924       8.67329334      12.14506981       0.01977873       0.00110146       0.01642704
Ru      -0.02848766       0.01065509      14.21245541       0.00831366      -0.00104233       0.00691550
Ru       2.72058370       0.00024376      14.20102335      -0.00089989      -0.00717749       0.00143493
Ru       5.47379478       0.00724634      14.20136685       0.01333605      -0.00255902      -0.00653420
Ru       8.18670534      -0.01222363      14.21331405       0.00183448      -0.00249114      -0.01481213
Ru       1.33428618       2.31828965      14.19600406      -0.00197898      -0.00545151      -0.00747445
Ru       4.03733355       2.31684970      14.23992593       0.00143905       0.00134957       0.00646350
Ru       6.84769643       2.33947837      14.21368412      -0.00627838       0.00444364       0.00360777
Ru       9.54238427       2.34639017      14.21781017       0.00860882      -0.01200499      -0.00210779
Ru       2.74084555       4.67334654      14.21753135       0.00771742       0.00185119      -0.01375617
Ru       5.46546466       4.68691226      14.27296432       0.01279304       0.01142701       0.00330824
Ru       8.18656225       4.78330743      14.28024338      -0.01494737      -0.00003111       0.01016177
Ru      10.97347862       4.69286779      14.27288290       0.00602924       0.01430279      -0.00327379
Ru       4.09853450       7.12061206      14.21282124      -0.00365251       0.00717723      -0.00605983
Ru       6.81527933       7.10503279      14.23971187      -0.00869599       0.00462490      -0.00052630
Ru       9.59574120       7.10760683      14.18062570       0.00452154       0.02133527       0.01260175
Ru      12.32430452       7.10101742      14.22262712       0.00600738       0.02259383      -0.00934365
O        5.02731765       2.94180052      16.72364437       0.00899269       0.00079113       0.00126344
O        6.41486570       4.94014298      18.50721434       0.02105528      -0.00137965      -0.01476867
O        9.55067880       4.47579529      16.90044413       0.00231091       0.01374615       0.00256005
O        6.89252431       6.85286850      16.25319250       0.00226926      -0.00166710       0.00438322
C        6.73277891       4.56457531      17.14560375       0.00664296      -0.01347309       0.00426109
C        5.46478987       4.24830264      16.43335062       0.00806709       0.00645321      -0.01095084
C        7.49066107       5.66913865      16.44737482       0.01843610       0.00070063       0.00620921
C        8.89572788       5.61773720      16.45081820      -0.00181314       0.01365076       0.01215952
C        4.33469356       5.11333660      16.27320375      -0.00639948       0.01215669      -0.01440949
C        9.83961796       6.71724179      16.24898586       0.00377772       0.00839722       0.00801516
C        3.13898190       4.27466578      16.27551671      -0.00084204       0.01382791      -0.00424901
C        3.66489573       2.88368530      16.30040509      -0.01701787      -0.02126379       0.01645532
C       11.13512583       6.02306169      16.17227225       0.00657277      -0.00148584       0.00649795
C       10.87944094       4.61959078      16.42647595      -0.00428397      -0.00695895      -0.00039826
H        7.34735735       3.65052766      17.12329084       0.00215587      -0.00016609       0.02289876
H        4.35273248       6.14938913      16.61725109       0.01396058       0.02034977      -0.00885899
H        9.72070081       7.64230346      16.81964620      -0.00759324       0.01094107      -0.00565180
H        2.31597987       4.56710703      16.92949010      -0.00110506      -0.00224534      -0.00017972
H        3.13323918       2.10521550      16.85388943       0.00247109      -0.00541603       0.00783929
H       12.08589562       6.50820343      16.45215717       0.00492932      -0.00936704      -0.00294880
H        7.22462050       4.81651532      19.04142225      -0.02379247      -0.00380523       0.00195095
H       11.54059902       3.92187268      16.93087876      -0.00765315       0.00524094      -0.00191393
