72
Lattice="10.931999950290717 0.0 0.0 5.465999975145358 9.467385256950518 0.0 0.0 0.0 24.314003205440937" Properties=species:S:1:pos:R:3:forces:R:3 energy=-132303.39650204507 free_energy=-132303.39650204507 pbc="T T T"
Ru       0.00047608       0.00031005      10.09588183      -0.00197075      -0.02791112       0.11797147
Ru       2.73188120       0.00040297      10.09617686      -0.04470094      -0.02631396      -0.00920892
Ru       5.46566882      -0.00005913      10.09637430       0.01316945      -0.02704003      -0.03444378
Ru       8.20001473      -0.00033284      10.09616409       0.06917322      -0.05469302       0.06183709
Ru       1.36629981       2.36626461      10.09592305       0.00636117      -0.00316914      -0.06067366
Ru       4.09849487       2.36683663      10.09612927       0.00962107       0.02867140      -0.03250569
Ru       6.83248611       2.36672497      10.09636258       0.00050008       0.00788686      -0.01960775
Ru       9.56671794       2.36610528      10.09618193       0.00512909      -0.01027259      -0.04789297
Ru       2.73265229       4.73357443      10.09576582       0.03835957       0.01748273      -0.01725724
Ru       5.46541409       4.73414677      10.09623705      -0.00049828       0.03694547       0.05949764
Ru       8.19911507       4.73397648      10.09645380      -0.03255839       0.02814947      -0.03858223
Ru      10.93280360       4.73316819      10.09606682      -0.01346307       0.00746031      -0.05741505
Ru       4.09964486       7.10087069      10.09592735       0.02311859      -0.01512143       0.16504965
Ru       6.83207981       7.10150799      10.09626966      -0.02568995      -0.03239950       0.01560891
Ru       9.56520066       7.10074774      10.09632269      -0.02451495      -0.00677691      -0.03040972
Ru      12.29907141       7.10006569      10.09594573       0.02091592      -0.00279273      -0.01659030
Ru       0.00410282       1.58071652      12.15040195       0.00888907       0.00434439      -0.01644015
Ru       2.72930951       1.57785958      12.15000579      -0.00386000       0.00243458      -0.00312929
Ru       5.46619879       1.57508899      12.14841079       0.00635140       0.00512961       0.00485759
Ru       8.20127959       1.57133150      12.15202783       0.00008279       0.00223403       0.00092663
Ru       1.36900700       3.94301328      12.15098872      -0.00636297       0.00644087      -0.01107554
Ru       4.09579307       3.94534691      12.15717355       0.00689776       0.00291743       0.00119839
Ru       6.83485286       3.94121335      12.15318035      -0.01054589       0.00552633       0.01173966
Ru       9.56169781       3.94503674      12.15243664      -0.00493549      -0.00268989       0.00637814
Ru       2.73334090       6.30738777      12.15306269       0.00626141      -0.00075950      -0.00750762
Ru       5.46299969       6.31009164      12.15560415      -0.00858311       0.00106469       0.00156272
Ru       8.19299379       6.31409581      12.15872255       0.00586314      -0.00129506       0.00558264
Ru      10.93051544       6.31486905      12.15207487      -0.00361831       0.00306810       0.00948840
Ru       4.10312605       8.67861235      12.16003885      -0.00340851       0.00036175      -0.00678411
Ru       6.83165323       8.67644759      12.14966817      -0.00478637       0.00703711       0.00174964
Ru       9.56269655       8.68023852      12.15028370       0.00305164      -0.00338151       0.01366747
Ru      12.30206177       8.67778663      12.15346189       0.00693067       0.00383943       0.00062889
Ru      -0.00945933       0.03944632      14.31474583       0.00113463       0.01424057      -0.00569474
Ru       2.75590408       0.01277358      14.20873476       0.00760455      -0.00153958      -0.00695535
Ru       5.46012252       0.00063940      14.21650441       0.00092534       0.00232093      -0.01173709
Ru       8.17210916       0.00663795      14.21677250      -0.00185916       0.01702173      -0.00366845
Ru       1.37597141       2.38906846      14.21553741       0.00041240      -0.00184811      -0.00482262
Ru       4.09108386       2.34570466      14.20941911       0.00331055       0.00127681      -0.00366999
Ru       6.84012509       2.34471964      14.20581191      -0.00109889       0.01420792      -0.00319382
Ru       9.56269294       2.39658916      14.20699273       0.00123284      -0.00070474       0.00658537
Ru       2.70064370       4.71151058      14.21281470      -0.00326736       0.01074078      -0.01320339
Ru       5.46846462       4.70016831      14.21413600       0.00189233       0.00130663       0.00169127
Ru       8.21684070       4.72268030      14.20624288      -0.01692326       0.00251737      -0.00693478
Ru      10.93220093       4.73451181      14.21484072      -0.00179849       0.00617348      -0.00242866
Ru       4.05969456       7.10495200      14.31940136      -0.00579012       0.00074485      -0.00722609
Ru       6.84423738       7.10637843      14.22171383       0.01511346      -0.00869573      -0.00059701
Ru       9.56900145       7.10734332      14.21102266      -0.00251120      -0.00771922       0.00896107
Ru      12.26836344       7.08606641      14.21159783      -0.01507052       0.00199363      -0.00806401
O        5.56000778       4.73705487      16.40454627       0.00694146       0.00699906      -0.00823756
O        6.01446249       5.88269381      19.02739990      -0.01139076       0.00994091      -0.00151772
O        6.11590063       7.48353936      16.45805524      -0.00253511      -0.00374558       0.00446626
O        4.81398113       3.07286916      18.29080281       0.00485219      -0.00311386      -0.00741275
C        4.57698882       5.62904418      17.01369637      -0.00016198      -0.00383969      -0.00144599
C        4.71657023       5.51790819      18.55267584      -0.00290792      -0.01031758       0.00037615
C        4.77000107       6.96271966      16.35662177       0.00133723       0.01029470      -0.01145375
C        4.26744983       4.14810719      18.98128551       0.01413593       0.00108346       0.00430197
C        3.83642807       8.04765015      16.36452784      -0.00713455      -0.00453620      -0.00404229
C        3.37829125       3.67590374      19.89599284      -0.01080506      -0.00103718       0.00687487
C        4.62597528       9.29417568      16.37100673      -0.00966735       0.00172187       0.00432305
C        3.36373935       2.24330092      19.77438428       0.00008922      -0.00037152       0.00679800
C        5.99999237       8.91303480      16.33167694      -0.00654757      -0.00045560       0.00684556
C        4.24184656       1.92584587      18.78941645      -0.00070037       0.01871917       0.00400192
H        3.55608053       5.29411245      16.74427626      -0.01190678      -0.00394484      -0.00155217
H        4.01305937       6.23680280      18.99990192       0.01290951      -0.00117422       0.00537361
H        2.84765795       7.97792761      16.81740653       0.00078701      -0.00099373      -0.01032375
H        2.79367433       4.27657188      20.58550616       0.00850032       0.00652855      -0.00576287
H        5.40241497       3.82300336      16.76013241      -0.00605623      -0.01015740      -0.00627323
H        6.67495321       5.49639006      18.41593319       0.00407828       0.00134237      -0.01786145
H        4.26605691      10.21738410      16.82167112       0.00409217      -0.01137842       0.00774802
H        2.77511254       1.54176773      20.35596158      -0.01096498       0.00670904       0.00161414
H        6.83017472       9.42754231      16.81245592       0.00736878      -0.00658897       0.01547213
H        4.57500941       1.00310144      18.32863720      -0.00879832      -0.01009904       0.00042552
