60
Lattice="10.931999950290717 0.0 0.0 5.465999975145358 9.467385256950518 0.0 0.0 0.0 24.314003205440937" Properties=species:S:1:pos:R:3:forces:R:3 energy=-130073.63482208508 free_energy=-130073.63482208508 pbc="T T T"
Ru       0.00047608       0.00031005      10.09588183       0.01657205      -0.02547938      -0.04114896
Ru       2.73188120       0.00040297      10.09617686       0.00327610      -0.03420878      -0.02237734
Ru       5.46566882      -0.00005913      10.09637430      -0.00270146       0.01600460      -0.01752335
Ru       8.20001473      -0.00033284      10.09616409      -0.01167461       0.00822779      -0.04344933
Ru       1.36629981       2.36626461      10.09592305      -0.00164782       0.00010644      -0.06170493
Ru       4.09849487       2.36683663      10.09612927       0.01086368       0.01786968      -0.04815985
Ru       6.83248611       2.36672497      10.09636258      -0.01368315       0.04814134       0.13136820
Ru       9.56671794       2.36610528      10.09618193      -0.00690727       0.02824897      -0.02685312
Ru       2.73265229       4.73357443      10.09576582       0.01015869      -0.00329590      -0.02776509
Ru       5.46541409       4.73414677      10.09623705       0.04223654      -0.01872612       0.13705137
Ru       8.19911507       4.73397648      10.09645380      -0.03619239      -0.00308327       0.13307207
Ru      10.93280360       4.73316819      10.09606682      -0.04557049      -0.00491672      -0.01494145
Ru       4.09964486       7.10087069      10.09592735       0.00787657      -0.01178388      -0.03310887
Ru       6.83207981       7.10150799      10.09626966       0.02291701      -0.03579387      -0.03016315
Ru       9.56520066       7.10074774      10.09632269      -0.02801191      -0.02559687      -0.00510698
Ru      12.29907141       7.10006569      10.09594573      -0.02887709       0.00138737      -0.05073815
Ru       0.00425973       1.57401519      12.15237818       0.00168484       0.00040238       0.01240840
Ru       2.73479320       1.57730947      12.15643591       0.00088343      -0.01592516      -0.00163136
Ru       5.46059254       1.57505544      12.15046760      -0.01119690      -0.00819693      -0.01492088
Ru       8.19868392       1.57607384      12.15208816       0.00650412      -0.00196767       0.00251068
Ru       1.36486264       3.94464892      12.15275405      -0.00025531      -0.00657354      -0.00644241
Ru       4.09005191       3.93968626      12.14799898       0.00515918       0.00378338       0.01599329
Ru       6.83233785       3.94855545      12.16647828      -0.00145602      -0.00016686      -0.01236649
Ru       9.56674174       3.94249660      12.15426979      -0.00247392       0.00278476       0.00848593
Ru       2.73127131       6.31116666      12.14821224      -0.00257316       0.00832755       0.00453851
Ru       5.46470434       6.31098804      12.15440593       0.02272341       0.01059089      -0.00755622
Ru       8.20011484       6.31153877      12.15415815       0.00827561       0.01309437      -0.00745157
Ru      10.92825392       6.31021520      12.15239861       0.00937681       0.00324807       0.00037461
Ru       4.09750835       8.67720710      12.15101422       0.00619687       0.00087623       0.00593951
Ru       6.83401076       8.67227919      12.15938948       0.01047879      -0.00439967       0.00368670
Ru       9.56730608       8.67699110      12.15350043      -0.00808149      -0.00469689      -0.00563509
Ru      12.29705279       8.68086851      12.15061245       0.00148481      -0.00078290       0.00858697
Ru       0.00118264      -0.00783899      14.21356640       0.00621359       0.00792517      -0.00558161
Ru       2.74340154      -0.00448096      14.21575028      -0.00689827       0.00212605       0.00378955
Ru       5.46506313      -0.01805739      14.21491323      -0.00687410       0.00795499      -0.00408523
Ru       8.20217698      -0.01320734      14.21364798      -0.00077262       0.00966581       0.01090688
Ru       1.37144667       2.36808706      14.21620374      -0.01348724       0.00832935      -0.00379983
Ru       4.06279057       2.35613815      14.21872712       0.00547414       0.00504270       0.01057623
Ru       6.87487733       2.36857350      14.24094709       0.00667227      -0.00747008      -0.01626351
Ru       9.59821591       2.33889313      14.20542118       0.01655225       0.01369112       0.00177997
Ru       2.70482938       4.74580110      14.21016815      -0.00796476      -0.00471669      -0.00221346
Ru       5.43671277       4.76680407      14.26072426      -0.01839907      -0.01013915      -0.00528747
Ru       8.22809985       4.70307067      14.26556356       0.00783827       0.00931793      -0.00467504
Ru      10.94523207       4.73147862      14.21238680       0.00411377      -0.00040443       0.00331981
Ru       4.07963124       7.11368567      14.20834721       0.00572379      -0.01324915       0.00505453
Ru       6.83643496       7.11926407      14.21878022       0.00623878      -0.01198185      -0.00245875
Ru       9.57661051       7.10822923      14.21867720       0.00119916      -0.02166334      -0.01882073
Ru      12.29720144       7.10364004      14.21327326      -0.00542503      -0.00796116       0.01607248
O        6.95846409       5.28671577      16.76113297       0.00051499      -0.00667381       0.00818819
C        7.86250278       4.22231270      16.39202532      -0.01217752       0.00388339      -0.01059037
C        7.04175912       2.97934502      16.29243187      -0.00296525       0.00965783       0.00128761
C        9.08502143       4.21638468      17.27335304      -0.00098833       0.02447073      -0.01915960
C        5.65674507       3.43421172      16.24559772       0.00343808      -0.00207077       0.01531503
C        5.66697713       4.86374265      16.41085185       0.00560938       0.00415362       0.00019180
H        7.32248685       2.09076755      16.86534199       0.00561246      -0.01164581      -0.00130098
H        9.77029905       3.42617132      16.93314669       0.02382333       0.00574642       0.02375005
H        9.62284667       5.17115919      17.22822542       0.00044609       0.02440517      -0.01187798
H        8.80628392       4.01108478      18.32093385      -0.01420046       0.02201944       0.00797865
H        4.80170469       2.81320725      16.53518016       0.00709779      -0.00469689       0.01529215
H        4.88401678       5.44278929      16.89817295      -0.00178100      -0.01321521      -0.00236053
