65
Lattice="10.931999950290717 0.0 0.0 5.465999975145358 9.467385256950518 0.0 0.0 0.0 24.314003205440937" Properties=species:S:1:pos:R:3:forces:R:3 energy=-130578.71723115767 free_energy=-130578.71723115767 pbc="T T T"
Ru       0.00047608       0.00031005      10.09588183      -0.01195949       0.02051406       0.02947873
Ru       2.73188120       0.00040297      10.09617686       0.00966349      -0.01703947      -0.03267538
Ru       5.46566882      -0.00005913      10.09637430       0.00299405      -0.00890476      -0.02010731
Ru       8.20001473      -0.00033284      10.09616409       0.00162185       0.02167363       0.01254853
Ru       1.36629981       2.36626461      10.09592305      -0.02957566      -0.00446601       0.01468897
Ru       4.09849487       2.36683663      10.09612927       0.01003810      -0.00834632      -0.02160318
Ru       6.83248611       2.36672497      10.09636258       0.03040818       0.00122770       0.03065886
Ru       9.56671794       2.36610528      10.09618193      -0.01254364       0.01130540       0.05766239
Ru       2.73265229       4.73357443      10.09576582       0.00136217       0.00064483      -0.02270927
Ru       5.46541409       4.73414677      10.09623705       0.01262103      -0.00934596       0.00049108
Ru       8.19911507       4.73397648      10.09645380       0.01284009      -0.02942859       0.04798450
Ru      10.93280360       4.73316819      10.09606682      -0.03606486      -0.01852197       0.01752592
Ru       4.09964486       7.10087069      10.09592735      -0.00020003      -0.01014557      -0.01393358
Ru       6.83207981       7.10150799      10.09626966       0.01292211      -0.01926270       0.00063095
Ru       9.56520066       7.10074774      10.09632269      -0.00304624      -0.01700348      -0.02107610
Ru      12.29907141       7.10006569      10.09594573      -0.01364767       0.00019540      -0.00438116
Ru      -0.00303580       1.57893718      12.16450554      -0.00232428      -0.00246569       0.01044639
Ru       2.73260905       1.57570374      12.15321934       0.00494603      -0.01174557       0.00524222
Ru       5.46514951       1.57553207      12.15508846       0.00078393       0.00087880      -0.00081607
Ru       8.20293729       1.57830141      12.16309244      -0.01598609      -0.01123264      -0.00556052
Ru       1.36550030       3.94449663      12.15254874       0.00724203       0.00507356       0.01162781
Ru       4.09750192       3.94454282      12.15424845       0.00769171      -0.00056616      -0.00259939
Ru       6.83215445       3.94409944      12.15686868      -0.01322781      -0.00686844      -0.00100170
Ru       9.56495972       3.94190954      12.16504350      -0.00891761      -0.00399498       0.00851318
Ru       2.73301537       6.30976442      12.15494262       0.00394099       0.00750248      -0.00493138
Ru       5.46569484       6.31113680      12.15535252      -0.00479536      -0.00502496      -0.01410919
Ru       8.19930314       6.30877490      12.15815757      -0.00421275       0.00551193      -0.00541397
Ru      10.93021938       6.30952718      12.15484838       0.00241684       0.01191398       0.00322622
Ru       4.09870666       8.67687230      12.15401235      -0.00408240      -0.00066129       0.00447243
Ru       6.83343476       8.67632756      12.15525671       0.00076053      -0.00203734      -0.00398495
Ru       9.56438659       8.67506552      12.15594598       0.01136993       0.00246235      -0.00914541
Ru      12.29971671       8.67732496      12.15565022      -0.00499437       0.00177149      -0.00491518
Ru       0.01543561      -0.02011850      14.21434669      -0.00138840      -0.00708236       0.00077930
Ru       2.73148435      -0.00251402      14.21914339       0.00252354       0.00826224      -0.00117319
Ru       5.46300454      -0.00700986      14.21654403      -0.00196098      -0.00381346      -0.01063511
Ru       8.19139900      -0.01854689      14.21436928      -0.00029799      -0.00439633      -0.01309977
Ru       1.38844887       2.36228849      14.21494249       0.00114877       0.00786706       0.00503576
Ru       4.09291517       2.36473464      14.21552258      -0.00076850       0.00857849      -0.00550088
Ru       6.80624385       2.35272370      14.21123335      -0.01194149      -0.00057618      -0.01006818
Ru       9.56972412       2.36109825      14.24398455       0.00498820      -0.00605006      -0.01905830
Ru       2.72986903       4.72977763      14.22020044      -0.00208362      -0.00015967      -0.00076773
Ru       5.45322219       4.73727112      14.21462135      -0.00936524      -0.00411017      -0.00742997
Ru       8.18607796       4.74520396      14.22694162      -0.00370265      -0.00383711      -0.00928760
Ru      10.94527534       4.74739662      14.21407705       0.01049139      -0.00912793      -0.00146373
Ru       4.10086580       7.09931342      14.21970726      -0.00259399       0.00286909       0.00066257
Ru       6.82650179       7.10119422      14.21907967       0.00388777       0.00548031      -0.00619944
Ru       9.56673880       7.09830578      14.22003839      -0.00050676       0.00218698      -0.00424335
Ru      12.29762246       7.09640051      14.21742914       0.00537849       0.00085823       0.00183397
O        7.86623078       4.82902833      18.26125773       0.00199518       0.01518699       0.00008587
O        9.68149099       2.19694800      16.52687316       0.01049961      -0.00549856       0.01134731
C        8.11131786       3.82504039      17.30712798       0.01438147      -0.00428886       0.00187202
C        6.99686535       2.79075271      17.48080704       0.01613830      -0.00547079      -0.00104155
C        5.81266892       3.62833036      18.00743149      -0.00542708       0.00204557      -0.01243668
C        6.42955485       5.02150237      18.24693725       0.00671366      -0.00095079       0.00703377
C        9.53124270       3.31898492      17.44302326       0.00493395       0.00820130       0.00355635
H        8.00919800       4.28432427      16.25525530       0.00554767      -0.01239837       0.00198721
H        7.31084239       2.01229510      18.19133179      -0.00609197       0.00586366      -0.01229630
H        6.75611182       2.26424598      16.52987974       0.00021829       0.01194329       0.00763798
H        5.00118548       3.68050975      17.26618949      -0.01112851       0.00373890      -0.00565514
H        5.40161769       3.19433681      18.92744007       0.00746391       0.02433292      -0.00090349
H        6.17303835       5.71460232      17.42343724       0.00613568       0.00544714      -0.00066772
H        6.15867387       5.47982668      19.20504364      -0.00215510       0.01353429      -0.00485553
H        9.69950594       2.95727590      18.46883413       0.00353989       0.00046537       0.01699859
H       10.25549969       4.11263194      17.19851084       0.00142311       0.01368470       0.00019489
H       10.60773608       1.85897888      16.56771170      -0.01604163       0.02359938       0.00152338
