76
Lattice="11.087434113345987 0.0 0.0 0.0 11.087434113345987 0.0 0.0 0.0 23.919997093830293" Properties=species:S:1:pos:R:3:forces:R:3 energy=-44935.253426972035 free_energy=-44935.253426972035 pbc="T T T"
Pt      -0.00009527      -0.00004859       9.96667100       0.00984578       0.00044429      -0.00579398
Pt       2.77173621      -0.00015720       9.96645199       0.01738991       0.01319567      -0.00550987
Pt       5.54376953      -0.00034343       9.96640857      -0.00128632       0.02129568       0.01724953
Pt       8.31571360      -0.00018976       9.96662959       0.00097111      -0.00416287      -0.00202063
Pt      -0.00042809       2.77133446       9.96638676       0.02616920      -0.00078933      -0.00399344
Pt       2.77173606       2.77103184       9.96622468       0.01684535       0.01040680       0.02449104
Pt       5.54421354       2.77185517       9.96597376       0.00133569       0.00826533       0.02044670
Pt       8.31562674       2.77188781       9.96633361      -0.00291769       0.00362988       0.02317412
Pt      -0.00075902       5.54390697       9.96597014       0.01311751       0.00140511       0.00943749
Pt       2.77205531       5.54389405       9.96599512      -0.00481465      -0.00748680       0.00264309
Pt       5.54467518       5.54413479       9.96609470      -0.00304676      -0.01095264       0.02538116
Pt       8.31538521       5.54402761       9.96577354       0.00027099      -0.00647918       0.01200628
Pt      -0.00040448       8.31603045       9.96615557      -0.00211396      -0.01257089       0.00205174
Pt       2.77197514       8.31628060       9.96624031      -0.00508256      -0.00405000       0.00031753
Pt       5.54417137       8.31566934       9.96635634       0.00410117       0.00366356       0.00636014
Pt       8.31556307       8.31551749       9.96620598       0.00585055      -0.01006587       0.02090075
Pt       1.39287654       1.38555381      11.96155386      -0.00276831       0.00316683      -0.00617450
Pt       4.16448569       1.39260598      11.96721426      -0.00042577      -0.00039081       0.00289583
Pt       6.93200429       1.38820993      11.96280571      -0.00797376      -0.00339051      -0.00012367
Pt       9.70789710       1.38308315      11.95740505       0.00038515      -0.00410451      -0.01035640
Pt       1.38916056       4.15860546      11.96230963       0.00340620      -0.00196767      -0.00495606
Pt       4.16064998       4.15788824      11.96381485       0.00125290      -0.00422587      -0.00565283
Pt       6.93206855       4.15860594      11.96685680      -0.00237236      -0.00312106       0.00377284
Pt       9.70664719       4.15848600      11.95890386      -0.00268012       0.00200906      -0.00369699
Pt       1.38404193       6.92923190      11.96235755       0.01245674       0.00096365       0.00533195
Pt       4.15546331       6.93199477      11.95728380      -0.00394639       0.00796399      -0.00436008
Pt       6.93305016       6.92782287      11.96360207      -0.00004448       0.00426572      -0.00638688
Pt       9.70132762       6.92501478      11.96595275      -0.00247957       0.00033681       0.00013190
Pt       1.38776325       9.70142639      11.96044908       0.00414076      -0.00213222       0.01169338
Pt       4.15854319       9.70597382      11.96060082      -0.00270146      -0.00808226       0.00628249
Pt       6.93209101       9.70207571      11.96108018      -0.00556335       0.00163754      -0.00440764
Pt       9.70497672       9.69803287      11.96113087       0.00124827       0.00636425      -0.00582921
Pt       0.00638433      -0.00101342      13.95534067      -0.01046285       0.01139796       0.00651903
Pt       2.77615011       0.00165469      13.95877292       0.00719755       0.00238367      -0.01920100
Pt       5.54852534      -0.00532719      13.95708414       0.00588217       0.00316297       0.00311592
Pt       8.32199512      -0.00200678      13.95671329      -0.00869984      -0.00038798      -0.00713790
Pt       0.00834051       2.77053706      13.95966061      -0.00262253       0.00315577      -0.01352812
Pt       2.76853459       2.77494012      13.96215024       0.00528027      -0.00153546       0.00124750
Pt       5.54404196       2.77013912      13.97482530       0.00352730      -0.01161316      -0.01127403
Pt       8.34759552       2.75490061      13.94868734      -0.00941127      -0.00659565      -0.00916290
Pt       0.01334269       5.54069018      13.96509256      -0.00264155      -0.00446549       0.00050085
Pt       2.77111553       5.54578062      13.96436523      -0.00392967      -0.00285984      -0.01719168
Pt       5.52291855       5.56459852      13.95111688       0.00458711      -0.00424412      -0.01347721
Pt       8.33499206       5.54350068      13.96837081       0.00234922      -0.00015349      -0.00965295
Pt       0.00345744       8.31500938      13.95973265      -0.00760070      -0.00557569      -0.01886470
Pt       2.77280941       8.31753907      13.95683957       0.01084080      -0.00535098      -0.00021366
Pt       5.54397142       8.32214457      13.95571462       0.00304162       0.01067291      -0.01534871
Pt       8.31855051       8.32198387      13.95580705      -0.00315603       0.00828127       0.00642390
O        9.73628054       3.98992579      17.44111771      -0.00581018       0.00204351       0.00732404
C        5.41278042       4.36562280      17.50484629      -0.00424232       0.00235796       0.00334860
C        6.27016260       5.61149232      17.18400581      -0.00721786      -0.00232479      -0.00086415
C        6.07589912       3.07790458      17.02303277       0.00097471       0.00123824       0.00931305
C        7.75967837       5.35296069      16.96768304      -0.00771537      -0.00493549       0.00018075
C        7.54479136       2.85864833      17.40580633       0.00048645      -0.00542349      -0.00385203
C        8.33851049       4.14344613      17.70114535      -0.00931845      -0.00305421       0.01066365
C        5.03193618       4.26750752      18.99799143      -0.00792594       0.00120045       0.00158149
C        4.12227260       5.40664739      19.49312232       0.00381552       0.00285830      -0.00357692
C        2.83266828       5.58379688      18.68025501       0.00903151      -0.00584437       0.00462593
H        4.47081077       4.45405023      16.94459893       0.00151952      -0.00907239       0.00120739
H        6.13723225       6.37174059      17.96766156       0.00721606       0.01025047      -0.00890399
H        5.87940735       6.10154528      16.25834050      -0.01086857      -0.01675999      -0.00604081
H        6.02206043       3.10085495      15.87392739       0.01399554       0.00893047       0.00031085
H        5.46405834       2.20614144      17.29080708      -0.00596984      -0.00345556      -0.01955555
H        7.92464645       5.10638096      15.86013654       0.00837717       0.00848310      -0.00770174
H        8.37849143       6.23827719      17.15775425      -0.01926193      -0.00409063      -0.00625935
H        7.62439627       2.17843986      18.26645558      -0.00071502      -0.00597781      -0.00524479
H        8.05948052       2.33198933      16.57579840      -0.01516771       0.00792388      -0.02358344
H        8.29257688       4.36442780      18.78134747      -0.01530552       0.00424103       0.01526618
H        5.94220844       4.22273605      19.61874450      -0.02071718       0.00258910       0.00108783
H        4.50729654       3.30933166      19.14641998       0.00436188       0.00214096       0.00882480
H        4.67686272       6.35730711      19.51172729       0.00268140      -0.00358669      -0.00879060
H        3.86585684       5.19484725      20.54153288      -0.00653317       0.00938298       0.00198489
H        9.83557713       3.70567972      16.50211548       0.01026744       0.01392458       0.00944598
H        3.03012289       5.92953087      17.65503767       0.00038232       0.00430583       0.00013035
H        2.26767640       4.64310951      18.60499670      -0.00188230       0.00347073       0.00879934
H        2.17201247       6.32904046      19.14386485       0.01279047      -0.02213000       0.00221809
