70
Lattice="11.087434113345987 0.0 0.0 0.0 11.087434113345987 0.0 0.0 0.0 23.919997093830293" Properties=species:S:1:pos:R:3:forces:R:3 energy=-44839.57732046821 free_energy=-44839.57732046821 pbc="T T T"
Pt      -0.00009527      -0.00004859       9.96667100      -0.01909507       0.02364206      -0.06243975
Pt       2.77173621      -0.00015720       9.96645199      -0.00560706       0.01868009      -0.06496252
Pt       5.54376953      -0.00034343       9.96640857      -0.03981122       0.03347036       0.00009667
Pt       8.31571360      -0.00018976       9.96662959       0.03135409       0.04063140       0.00309278
Pt      -0.00042809       2.77133446       9.96638676      -0.05779531      -0.01427734       0.01668363
Pt       2.77173606       2.77103184       9.96622468       0.05587470      -0.01223279       0.02670296
Pt       5.54421354       2.77185517       9.96597376      -0.03437411       0.02202381       0.07426760
Pt       8.31562674       2.77188781       9.96633361       0.00708827       0.02264756       0.07135660
Pt      -0.00075902       5.54390697       9.96597014      -0.06288276       0.00506533       0.00400064
Pt       2.77205531       5.54389405       9.96599512       0.06129587       0.00039801       0.02494099
Pt       5.54467518       5.54413479       9.96609470      -0.02364027      -0.02840658       0.08190018
Pt       8.31538521       5.54402761       9.96577354       0.00023423      -0.01703304       0.08515648
Pt      -0.00040448       8.31603045       9.96615557      -0.01489723       0.00321414      -0.10600170
Pt       2.77197514       8.31628060       9.96624031       0.03236042      -0.01194946      -0.08206447
Pt       5.54417137       8.31566934       9.96635634      -0.04181359      -0.05251350      -0.00297579
Pt       8.31556307       8.31551749       9.96620598       0.01339185      -0.04439987       0.01097038
Pt       1.38009117       1.38386202      11.95300287       0.01349366      -0.01620643      -0.02000730
Pt       4.16785040       1.39692617      11.97066005      -0.01503247      -0.00418781      -0.00871295
Pt       6.92612670       1.39278770      11.96558347       0.00259167      -0.00060575      -0.00573536
Pt       9.68299059       1.40187499      11.97446234       0.00365585      -0.00676277      -0.00807738
Pt       1.38131521       4.15670268      11.95182491      -0.00366819      -0.00984450      -0.02280800
Pt       4.17545033       4.15566837      11.98668472       0.01210013      -0.00840494      -0.00752433
Pt       6.92569401       4.15739804      11.98284740      -0.00035224      -0.00132643       0.00881400
Pt       9.67940224       4.15763238      11.98359546      -0.00182291       0.00368773       0.00519749
Pt       1.38380744       6.93482434      11.94421509      -0.00799665       0.01074901      -0.00717518
Pt       4.17436407       6.91221736      11.97459575       0.00715821       0.00207874      -0.01057983
Pt       6.92324120       6.91796205      11.97326312       0.00368568      -0.01157202      -0.00745543
Pt       9.68529734       6.91914837      11.96797352      -0.00693632      -0.00899603       0.00149124
Pt       1.38307750       9.70192355      11.95354554      -0.00075179       0.01830137       0.00407777
Pt       4.15388966       9.69827990      11.95394036      -0.00913487       0.01215669      -0.00586366
Pt       6.92667087       9.69835434      11.95137628       0.00868621       0.00307247      -0.00459045
Pt       9.70171110       9.70204748      11.95327671      -0.00034941       0.00712324       0.00204865
Pt      -0.00429186      -0.00311838      13.95134237       0.00900452       0.00350313      -0.00840365
Pt       2.76446212      -0.00384070      13.95222231       0.00843373      -0.00064046      -0.01311983
Pt       5.53666825      -0.02707503      13.95519518       0.00509953      -0.00706873       0.00092123
Pt       8.31359901      -0.02633838      13.95554174      -0.01169209      -0.01016306      -0.00198335
Pt       0.01173915       2.76844055      13.95980832       0.00092097       0.00205148      -0.01176640
Pt       2.74496467       2.76171807      13.95642534       0.01132340       0.00346765      -0.01269045
Pt       5.52148685       2.71210466      14.04611256      -0.01112465       0.01312857      -0.01674971
Pt       8.32469853       2.71674028      14.04966485       0.00958636       0.01085263      -0.00395564
Pt       0.00864655       5.55205985      13.95626508      -0.00511212      -0.01076649       0.01402845
Pt       2.73815483       5.55192949      13.93548217       0.01226596      -0.00822959       0.01263569
Pt       5.51717682       5.57606879      14.07679635       0.00861140      -0.01531632      -0.00310641
Pt       8.33426472       5.59938575      14.03624824       0.00650078      -0.00585029      -0.00347227
Pt      -0.00111976       8.31548198      13.95113529      -0.01160236      -0.00227748      -0.00242609
Pt       2.76524599       8.31731279      13.94562247       0.00878417       0.00203606       0.02142089
Pt       5.53762729       8.33137199      13.96097721      -0.00642956      -0.00097008       0.00085129
Pt       8.31381619       8.33833914      13.95754594      -0.00087058      -0.01112851      -0.00707825
O        9.62409650       3.95732198      16.77764927       0.00818691       0.00617245      -0.00610148
C        4.12016639       4.15009369      16.91539309       0.00124210       0.00233713      -0.00576544
C        3.41295232       5.47086159      17.20674451       0.00532913      -0.00868493      -0.00190236
C        5.50481993       4.18236195      16.30930518       0.00718392       0.00242352       0.00376769
C        6.25438921       5.38969203      16.13819035       0.00919606      -0.00190493      -0.01013786
C        6.15655374       2.90332791      16.10107302       0.01291105       0.00545871       0.00988692
C        1.94488665       5.24811041      17.57448198      -0.01400377      -0.00402943       0.00183422
C        7.74563551       5.34343181      16.08017560      -0.01726419       0.01427914      -0.00024091
C        7.64212214       2.83507722      16.11807029       0.01810597      -0.00358720       0.00497406
C        8.37451596       4.05421418      16.28544542      -0.00253845       0.01365102       0.01010341
H        3.47607763       3.53365546      16.25359628       0.01319310      -0.00509413       0.02221665
H        4.20510445       3.56521484      17.84998752      -0.00065975       0.01917323       0.00348359
H        3.93200707       6.01517428      18.01255032       0.00188359       0.00436573      -0.01067753
H        3.45573015       6.12182983      16.31078506       0.00842962      -0.00268449       0.00451049
H        5.84678570       6.29971527      16.58415296       0.00144470      -0.00869367       0.00857617
H        5.66604465       2.04521073      16.57060380      -0.00329333       0.00559112      -0.00957196
H        1.40803263       4.82415630      16.70896774       0.02074752       0.00562789       0.01932518
H        1.83341322       4.54618925      18.41415297       0.00971003       0.02283577       0.01573001
H        1.45625810       6.19373740      17.84802303       0.00982753      -0.02300649      -0.02231589
H        8.23728402       6.17645084      16.59367647      -0.00416030      -0.00596882      -0.00074793
H        8.08661258       1.94331052      16.56742037      -0.01773598       0.02070921       0.01790850
H       10.15252328       4.75042609      16.51043762      -0.00844530       0.00017843      -0.01378471
