75
Lattice="11.087434113345987 0.0 0.0 0.0 11.087434113345987 0.0 0.0 0.0 23.919997093830293" Properties=species:S:1:pos:R:3:forces:R:3 energy=-44495.4551406557 free_energy=-44495.4551406557 pbc="T T T"
Pt      -0.00009527      -0.00004859       9.96667100      -0.00910916       0.01043045      -0.01104160
Pt       2.77173621      -0.00015720       9.96645199       0.00110532       0.00764029      -0.01395518
Pt       5.54376953      -0.00034343       9.96640857      -0.00571299      -0.00105261      -0.02466485
Pt       8.31571360      -0.00018976       9.96662959      -0.00150255       0.01103029      -0.00868467
Pt      -0.00042809       2.77133446       9.96638676      -0.01207750       0.01250430       0.00380060
Pt       2.77173606       2.77103184       9.96622468      -0.01649054      -0.00153161      -0.02112984
Pt       5.54421354       2.77185517       9.96597376       0.00449223       0.00055793      -0.00327044
Pt       8.31562674       2.77188781       9.96633361       0.00618890       0.00988409      -0.00341005
Pt      -0.00075902       5.54390697       9.96597014      -0.00727031      -0.00962930       0.00432999
Pt       2.77205531       5.54389405       9.96599512      -0.01714669       0.00647687      -0.01745085
Pt       5.54467518       5.54413479       9.96609470       0.00022343      -0.00705074      -0.00605572
Pt       8.31538521       5.54402761       9.96577354       0.00972314      -0.01276167      -0.00017329
Pt      -0.00040448       8.31603045       9.96615557      -0.00407854      -0.01254518      -0.00848464
Pt       2.77197514       8.31628060       9.96624031       0.00127012      -0.01416061      -0.01028673
Pt       5.54417137       8.31566934       9.96635634      -0.01012732       0.00350801      -0.02419151
Pt       8.31556307       8.31551749       9.96620598       0.00048928      -0.00562609      -0.00776062
Pt       1.38180101       1.38555191      11.96045380       0.00824013       0.00082430       0.01983040
Pt       4.15501817       1.38319339      11.95818299       0.00465730       0.00891299       0.00816762
Pt       6.93152508       1.38575174      11.95817218      -0.00284133       0.00645450       0.01169569
Pt       9.69822662       1.39010954      11.96356756       0.00110120      -0.00122719       0.02018984
Pt       1.38124666       4.15797148      11.95894716       0.01094364       0.00027202       0.02451675
Pt       4.15251605       4.15757889      11.95334914       0.00599376       0.00008767       0.02169188
Pt       6.93490150       4.15794985      11.96341061      -0.00747291      -0.00163008       0.01807408
Pt       9.69671830       4.15835641      11.96677983      -0.00110660      -0.00076285       0.02079740
Pt       1.38254932       6.93003035      11.95970964       0.00834709      -0.00026971       0.01721919
Pt       4.15630368       6.93120276      11.95918615       0.00310152      -0.01063331       0.01208316
Pt       6.93157168       6.92990348      11.95834022      -0.00287758      -0.00726491       0.01554463
Pt       9.69886591       6.92627610      11.96272282       0.00147941       0.00018872       0.01843507
Pt       1.38325585       9.70144015      11.95998966       0.00715718      -0.00132180       0.02135610
Pt       4.15454648       9.70100501      11.96014603       0.00002057      -0.00013035       0.00285032
Pt       6.92657665       9.70138520      11.95674726       0.00593205       0.00107858       0.01235518
Pt       9.70121220       9.70167371      11.95808115       0.00020672       0.00077673       0.02325537
Pt      -0.00414151      -0.00038786      13.95706877       0.00332598       0.00690495      -0.00989849
Pt       2.76791931      -0.00153797      13.95484122       0.00382734       0.00785498       0.00844556
Pt       5.54026019      -0.00449016      13.95528127       0.00490309       0.00410528       0.00137477
Pt       8.31067565      -0.00924953      13.95321419       0.00872350       0.00683656       0.01013246
Pt       0.00475588       2.77390578      13.96103726       0.00338640      -0.00367154      -0.00056513
Pt       2.76579001       2.76956516      13.95666505       0.00107883       0.00214019      -0.00559086
Pt       5.52978303       2.75716913      13.93613448       0.00494089      -0.00017458      -0.00337483
Pt       8.31789818       2.75867395      13.97798825       0.00095079       0.00343191      -0.00663267
Pt       0.00529484       5.54330024      13.96109333       0.00318817      -0.00334346      -0.00244281
Pt       2.76555617       5.54671084      13.95705950       0.00108809      -0.00959021      -0.00635988
Pt       5.53148963       5.55543675      13.93869364       0.00469792      -0.00615522      -0.00304521
Pt       8.32004746       5.55847019      13.97765972      -0.00062915      -0.00800667      -0.00506173
Pt      -0.00360522       8.31535649      13.95690811       0.00194401      -0.00066206      -0.01017077
Pt       2.76814632       8.31605480      13.95506292       0.00461487      -0.00237056       0.00765700
Pt       5.54076604       8.31932771      13.95612602       0.00558007      -0.00184040       0.00018229
Pt       8.31143422       8.32542606      13.95296889       0.00651389      -0.00269246       0.00954111
C        5.87765045       4.21171713      16.99575447      -0.01610513       0.00086492       0.00707516
C        6.58496265       5.47165290      17.50285400      -0.00090811      -0.01009826      -0.01350009
C        6.57334868       2.93908833      17.48854958       0.00349182       0.01290360      -0.01792316
C        8.07601227       5.47077993      17.17066315      -0.00198412      -0.00285881       0.00937938
C        8.06498689       2.93002128      17.16355046       0.00213993       0.00107266       0.00267935
C        8.79600578       4.19594795      17.59681225      -0.00142413      -0.00146142       0.00521343
C        4.35602474       4.20902330      17.18067316      -0.00086826       0.00028719       0.00119068
C        3.81783159       4.20977967      18.61262898      -0.00506430      -0.00206434       0.00054739
C        2.28685971       4.15204674      18.62889107      -0.00511855       0.00249731       0.00309638
H        6.02514568       4.21808448      15.87105778      -0.00446626       0.00707490       0.00710447
H        6.47370246       5.53594935      18.60089634      -0.00224534      -0.00363477      -0.00888470
H        6.10464010       6.37039065      17.08453227      -0.00755056      -0.00460587       0.00832549
H        6.08779726       2.04972701      17.05578474      -0.00946243       0.00820208       0.00656223
H        6.45358958       2.86031795      18.58473412       0.00867927       0.00684556      -0.00970129
H        8.58174268       6.36608318      17.55776155       0.00190544       0.00668770      -0.01656819
H        8.18102554       5.57475859      16.03655861      -0.01352195      -0.02511299      -0.01042402
H        8.16939715       2.83418716      16.02850234       0.00206717       0.01596012      -0.01674585
H        8.56282916       2.02849448      17.54580345      -0.00165656      -0.01121155      -0.01626686
H        9.82945517       4.19140387      17.21919842       0.00686433       0.00307195       0.00042886
H        8.87192572       4.19244884      18.69933717      -0.00756599      -0.00082764       0.01861247
H        3.95069849       3.32493674      16.65158209       0.00075308       0.01418760      -0.01160956
H        3.93896636       5.08411094      16.64583597       0.00890219      -0.00987355      -0.01132725
H        4.15785248       5.11218289      19.14405484       0.00186148       0.00669232      -0.00742226
H        4.22254876       3.35064571      19.16971177      -0.00194941      -0.01140053      -0.00458479
H        1.85571269       5.00993259      18.09144783      -0.00501391       0.00904463      -0.00677126
H        1.92338829       3.24039220      18.13131300       0.00047900      -0.00253794      -0.00948968
H        1.88539922       4.15889194      19.65155876       0.00676766       0.00449943      -0.00881991
