76
Lattice="11.087434113345987 0.0 0.0 5.543717056672993 9.60199512801046 0.0 0.0 0.0 24.526424302659752" Properties=species:S:1:pos:R:3:forces:R:3 energy=-44946.33999837631 free_energy=-44946.33999837631 pbc="T T T"
Pt       1.38588521       0.80014120       9.92637509       0.01193635      -0.00324859       0.01418298
Pt       4.15771362       0.79986071       9.92601382       0.00469972       0.01368161       0.00184579
Pt       6.92972071       0.79986071       9.92601382       0.00961901       0.01008772       0.00829027
Pt       9.70154912       0.80014120       9.92637509       0.00093254       0.00744797       0.00850958
Pt       2.77155651       3.20075526       9.92601382       0.00888702       0.00146759       0.00670389
Pt       5.54371716       3.20066660       9.92553028       0.01906164       0.00948788       0.01360885
Pt       8.31587782       3.20075526       9.92601382       0.00179926       0.00282847       0.00857386
Pt      11.08743433       3.20078504       9.92637148       0.00334603       0.00476785       0.00039544
Pt       4.15756005       5.60138382       9.92601382       0.00791566       0.00773054      -0.00545897
Pt       6.92987428       5.60138382       9.92601382       0.00336789       0.00024451      -0.00699700
Pt       9.70170657       5.60128290       9.92635448      -0.00133003       0.00559755      -0.00356072
Pt      12.47316209       5.60128290       9.92635448       0.02280980       0.00452463      -0.01956070
Pt       5.54371716       8.00171740       9.92637509       0.00867439       0.01227985       0.00227054
Pt       8.31567832       8.00160727       9.92637148      -0.00006094       0.01233667       0.00937527
Pt      11.08743433       8.00143378       9.92635448       0.01228267       0.01543073       0.00063918
Pt      13.85919034       8.00160727       9.92637148       0.00775059       0.01314914       0.00754670
Pt       0.01364072       1.61132051      12.26298365      -0.00287604       0.00923129       0.00574410
Pt       2.78529528       1.61249544      12.26721869      -0.00934467      -0.01551172       0.00271303
Pt       5.55593060       1.61320060      12.26327254       0.01164067      -0.00029156       0.00102124
Pt       8.32817662       1.61213636      12.26500484      -0.00027537       0.01315376      -0.00247957
Pt       1.39950566       4.01285784      12.26407347      -0.01352066      -0.00450740      -0.00698363
Pt       4.16905273       4.01213276      12.26361765       0.01293059      -0.00323316      -0.00748037
Pt       6.94570254       4.01590128      12.26608113       0.00037255      -0.01592593       0.00187665
Pt       9.71455185       4.01385407      12.26343204       0.00797968      -0.01632805       0.00342188
Pt       2.78431569       6.41437399      12.26305560      -0.00579989      -0.00770380       0.00170721
Pt       5.55647626       6.41384497      12.26169078      -0.00816891       0.00180183       0.00277396
Pt       8.32785199       6.41631521      12.26475383      -0.00380318      -0.01021319       0.00563894
Pt      11.10119121       6.41375793      12.26033421       0.00999131      -0.00604543       0.00252148
Pt       4.17010143       8.81418916      12.26457086       0.00820079       0.00112769      -0.00700214
Pt       6.94214523       8.81212216      12.26871987      -0.00432717       0.00880706      -0.00408240
Pt       9.71434632       8.81548258      12.26410900      -0.00881554       0.01021062       0.00112460
Pt      12.48671239       8.81529940      12.26516874      -0.00352061      -0.00319768      -0.00635962
Pt       0.02014809       0.02669757      14.60259215      -0.00637865      -0.00388442      -0.00050908
Pt       2.79527232       0.02788465      14.60467468      -0.00575053       0.00570219      -0.00935650
Pt       5.56940185       0.02142919      14.60218463       0.00042680       0.00124056      -0.00399729
Pt       8.33836078       0.02372528      14.60581273       0.00322056      -0.00485116      -0.00364300
Pt       1.40923969       2.42559376      14.60322170      -0.00483727      -0.01496151       0.00055459
Pt       4.18160712       2.42416882      14.60623823      -0.00374301      -0.01361476       0.00834632
Pt       6.95799884       2.42169255      14.59861287       0.00053479      -0.00419501      -0.00364557
Pt       9.72938750       2.42073879      14.60042257      -0.00767089       0.00199415      -0.00105981
Pt       2.79610933       4.82468900      14.60416035      -0.00651980       0.00198669      -0.00024940
Pt       5.56065907       4.81814619      14.58914752       0.00164653      -0.00028179      -0.00927243
Pt       8.35278645       4.82837383      14.60197730      -0.00423846      -0.01017360      -0.00852578
Pt      11.12051773       4.82726455      14.59971092      -0.00494397      -0.01214795      -0.00079087
Pt       4.17390475       7.22578945      14.59804725      -0.00557904      -0.00220626      -0.00498151
Pt       6.94851928       7.22788428      14.60726409      -0.00721066      -0.00055690       0.00505016
Pt       9.73622524       7.23158669      14.59789747      -0.00790640       0.00015144       0.00322211
Pt      12.49786462       7.22588222      14.60425010       0.00474883      -0.00368388      -0.00126781
O        8.41968583       8.31726326      17.78030303       0.00437062       0.00447475       0.01284420
C        6.98790680       4.29126726      17.99060756      -0.01231533       0.00681497      -0.00215330
C        5.98575182       5.43431614      18.29123140      -0.01632651       0.00972006      -0.00055176
C        8.40491803       4.84397362      17.78573544       0.00139200      -0.00566928      -0.00714612
C        6.47704694       6.80096021      17.82342310      -0.00058570      -0.00293851      -0.00584566
C        8.73736336       6.02365623      18.69090469      -0.00283361      -0.00095337      -0.00922975
C        7.79471321       7.23498554      18.48795409      -0.01238912      -0.00793957       0.01062380
C        6.97305602       3.18892371      19.06169454      -0.00987895       0.00344374      -0.00238238
C        5.65606402       2.40760299      19.17978823      -0.00639433       0.00325296       0.00451743
C        5.34122194       1.53879105      17.95838879      -0.00309792       0.01487666       0.00056564
H        6.68572744       3.82759193      17.03046939       0.00125958      -0.01226468       0.00578627
H        5.79607824       5.48758106      19.37898516       0.02118409      -0.00669027      -0.00567083
H        5.00938850       5.22116664      17.83136609      -0.00129352      -0.00214713       0.02138155
H        8.51333629       5.18838829      16.71044135      -0.00379289      -0.02282265      -0.00698055
H        9.15479764       4.04463387      17.87724505      -0.00290200       0.00988692      -0.00803573
H        6.68231219       6.75558824      16.71435116       0.00579809       0.00292566      -0.00769865
H        5.71786207       7.58715213      17.93265854       0.00154703      -0.01081200      -0.00085978
H        8.65712971       5.68894137      19.73865143       0.00296217      -0.00259913      -0.00573433
H        9.77408889       6.36057866      18.55490922       0.00809435       0.00603386       0.00112177
H        7.55544877       7.67934383      19.46581918      -0.00175221       0.00985221       0.01858162
H        7.21581673       3.64609141      20.03594577       0.00234253      -0.00494835       0.00281639
H        7.78483532       2.47545923      18.84299684      -0.01050861      -0.00445829      -0.00252997
H        4.81828801       3.09448640      19.37434241       0.00100582      -0.00005142      -0.00436573
H        5.72084221       1.75531974      20.06371858      -0.00085669      -0.00349670       0.00034736
H        8.75636897       7.97119419      16.91826910       0.01265137      -0.01484863      -0.00664964
H        5.12242542       2.15392595      17.06464171      -0.02058759       0.01881276       0.00602641
H        6.19966816       0.89849740      17.69918220      -0.01942057      -0.01498825      -0.02221665
H        4.47056804       0.88900099      18.11455030       0.00417419       0.00782824       0.00304264
