70
Lattice="11.087434113345987 0.0 0.0 5.543717056672993 9.60199512801046 0.0 0.0 0.0 24.526424302659752" Properties=species:S:1:pos:R:3:forces:R:3 energy=-44849.02921628697 free_energy=-44849.02921628697 pbc="T T T"
Pt       1.38588521       0.80014120       9.92637509       0.00169050       0.00652340       0.02027829
Pt       4.15771362       0.79986071       9.92601382       0.00152004       0.00934467      -0.00179129
Pt       6.92972071       0.79986071       9.92601382       0.00850392       0.00167405      -0.01420894
Pt       9.70154912       0.80014120       9.92637509       0.00603669       0.01156122       0.00378338
Pt       2.77155651       3.20075526       9.92601382      -0.00015375       0.02075960       0.01291722
Pt       5.54371716       3.20066660       9.92553028      -0.00433899       0.01317922      -0.01814248
Pt       8.31587782       3.20075526       9.92601382       0.01311365       0.00376975      -0.02817672
Pt      11.08743433       3.20078504       9.92637148       0.00644858       0.01410893       0.02206855
Pt       4.15756005       5.60138382       9.92601382      -0.00616293       0.00537361       0.00698466
Pt       6.92987428       5.60138382       9.92601382       0.00500311       0.01033532      -0.00441458
Pt       9.70170657       5.60128290       9.92635448       0.01319182       0.01158359      -0.00117294
Pt      12.47316209       5.60128290       9.92635448       0.00621204       0.00193578       0.02268407
Pt       5.54371716       8.00171740       9.92637509       0.00430428       0.01491240       0.00681754
Pt       8.31567832       8.00160727       9.92637148       0.00281793       0.00711219       0.02078685
Pt      11.08743433       8.00143378       9.92635448       0.00868956       0.00384277       0.00692424
Pt      13.85919034       8.00160727       9.92637148       0.00330464       0.00521574       0.01438841
Pt       0.00887140       1.61388081      12.26570885      -0.00467992       0.00019180       0.01348107
Pt       2.77747343       1.61407481      12.26432942      -0.00314832       0.00307015       0.01306763
Pt       5.54706275       1.61280879      12.25769429       0.00499463      -0.00783132       0.00578447
Pt       8.32521981       1.61252359      12.25938772       0.00175581      -0.00078136       0.01068473
Pt       1.39369874       4.01398286      12.26925220      -0.00842165       0.00225640      -0.01744802
Pt       4.16334323       4.01480849      12.26336453      -0.00171493      -0.00098525       0.01041451
Pt       6.93525553       4.01465538      12.25559671       0.00407906       0.00964009       0.00485887
Pt       9.71045775       4.01420001      12.26350666      -0.00527899      -0.00002880       0.00432897
Pt       2.77939757       6.41555657      12.26684534      -0.00556875      -0.00131589      -0.01148075
Pt       5.55041430       6.41724098      12.26326105      -0.00070962      -0.01049884       0.01097347
Pt       8.32304197       6.41701148      12.26363958       0.01000750      -0.00917061      -0.00870318
Pt      11.09634754       6.41422082      12.26603839      -0.00297708      -0.00128658      -0.01368727
Pt       4.16711695       8.81625508      12.26479685      -0.01310826      -0.00871527       0.00935599
Pt       6.93768179       8.81664324      12.26894184      -0.00644524      -0.00574693      -0.00428449
Pt       9.70818083       8.81788936      12.26424646      -0.00355918      -0.01839444      -0.00049134
Pt      12.48117873       8.81572322      12.26445654      -0.00037384      -0.01058395       0.00680982
Pt       0.01323264       0.02452526      14.60761975      -0.00631077      -0.00271380       0.00045251
Pt       2.78522016       0.02433969      14.61235542       0.00304933      -0.00118939      -0.00142850
Pt       5.55641616       0.02347986      14.60481446      -0.00406080      -0.01398063      -0.00474600
Pt       8.32878248       0.02217144      14.60276515      -0.00207282      -0.00145396      -0.00569011
Pt       1.39878283       2.42482515      14.60792173      -0.00483650      -0.00964189       0.00193398
Pt       4.16708278       2.42431331      14.60283645       0.00118091       0.00238573      -0.00370085
Pt       6.93899239       2.42182155      14.57131058      -0.00280662      -0.00853375       0.01143910
Pt       9.71656694       2.42360361      14.60367803      -0.00988281      -0.00189490      -0.01436707
Pt       2.78433954       4.82588063      14.60498497      -0.00378955      -0.00788609       0.00931845
Pt       5.55344727       4.82701231      14.59770591      -0.00458068      -0.01547778      -0.01098427
Pt       8.32814542       4.82472239      14.58621523      -0.00332212      -0.01527441      -0.00950434
Pt      11.10056235       4.82604186      14.60956649      -0.00370984      -0.01328875       0.00077390
Pt       4.17085095       7.22666613      14.60613758      -0.00867207      -0.00599813      -0.00341391
Pt       6.94301898       7.22626784      14.60672761      -0.00019258      -0.00426469      -0.00097908
Pt       9.71991215       7.22950195      14.59533949      -0.00552684       0.00024708      -0.00103693
Pt      12.48738214       7.22586154      14.60648817       0.00319305       0.00711064       0.00073225
O        9.69348586       7.39196515      17.84040289       0.00218081       0.00605803      -0.02302063
C        7.08824006       2.34678386      17.77732319      -0.00139431      -0.01182296       0.00329410
C        6.57380951       1.81940764      19.12821297      -0.00228365      -0.00151798       0.00259527
C        7.75356275       3.69028231      17.80863655       0.00458171      -0.00390088       0.01411844
C        7.00228173       4.87856694      17.74627285       0.00538363      -0.00925623      -0.00072762
C        9.15393992       3.79840646      17.88791919       0.00429503       0.00915930       0.00149535
C        5.82192578       0.50179452      18.94137280      -0.00128529       0.00897058       0.00045946
C        7.61882217       6.12594686      17.75770563      -0.01233358       0.00479999      -0.01188132
C        9.78740063       5.03304756      17.90866761       0.02037214      -0.00477814      -0.01393512
C        9.01911718       6.20693028      17.83996570       0.00161002       0.00079910      -0.00644164
H        6.22632525       2.38512628      17.08245332      -0.00837794       0.01710606      -0.00519157
H        7.78686228       1.60402911      17.35861818       0.00241504      -0.00525251      -0.00821930
H        7.42877341       1.68304347      19.80934729      -0.00913847       0.00716412       0.00335863
H        5.91827230       2.57211244      19.59326028       0.00399395       0.00702785      -0.00693298
H        5.91372953       4.82311154      17.67310013       0.00103718      -0.00211807       0.00327456
H        9.75340008       2.88619338      17.91307425       0.01945374       0.01267811      -0.00009050
H        4.92981172       0.65413606      18.31426849       0.00410374      -0.00544251      -0.00340054
H        6.44745698      -0.24791428      18.43563481      -0.00876463      -0.00869907       0.00778144
H        5.49599629       0.07719105      19.89979787      -0.01476070      -0.00511470       0.00204737
H        7.02266544       7.03934513      17.70215090      -0.01061814       0.00338229      -0.00137528
H       10.87250418       5.11490521      17.95880015       0.02175436       0.00806529      -0.02203050
H        9.08877515       8.12384983      17.58858705      -0.00491698      -0.01650443      -0.00736698
