75
Lattice="11.087434113345987 0.0 0.0 5.543717056672993 9.60199512801046 0.0 0.0 0.0 24.526424302659752" Properties=species:S:1:pos:R:3:forces:R:3 energy=-44506.35849332253 free_energy=-44506.35849332253 pbc="T T T"
Pt       1.38588521       0.80014120       9.92637509      -0.00433257      -0.00699803       0.00208182
Pt       4.15771362       0.79986071       9.92601382       0.00212990      -0.00278348       0.00937347
Pt       6.92972071       0.79986071       9.92601382      -0.00522448      -0.00785909      -0.01072690
Pt       9.70154912       0.80014120       9.92637509      -0.00696306      -0.00477968      -0.00109298
Pt       2.77155651       3.20075526       9.92601382      -0.01269405       0.00200006       0.01224591
Pt       5.54371716       3.20066660       9.92553028      -0.00249371       0.00152132      -0.01008027
Pt       8.31587782       3.20075526       9.92601382      -0.00181546       0.00635037       0.00109786
Pt      11.08743433       3.20078504       9.92637148      -0.00385974       0.00161362       0.00110352
Pt       4.15756005       5.60138382       9.92601382       0.00251300      -0.00146579       0.01177514
Pt       6.92987428       5.60138382       9.92601382      -0.00235873      -0.00925443       0.02014125
Pt       9.70170657       5.60128290       9.92635448      -0.01344456      -0.00957299       0.01454499
Pt      12.47316209       5.60128290       9.92635448       0.00053093      -0.01259969       0.00943621
Pt       5.54371716       8.00171740       9.92637509      -0.00252045      -0.01222225       0.00843142
Pt       8.31567832       8.00160727       9.92637148      -0.00753436      -0.01708652       0.00353810
Pt      11.08743433       8.00143378       9.92635448      -0.00560860      -0.00570991       0.00243303
Pt      13.85919034       8.00160727       9.92637148       0.00064123      -0.01129177       0.01231224
Pt      -0.00467410       1.59135820      12.26064006       0.00858054      -0.00371036       0.00895052
Pt       2.76471810       1.59153328      12.26418923       0.00099090       0.00247983       0.00124133
Pt       5.53609581       1.59090362      12.26086791      -0.00526742       0.00304496      -0.00449506
Pt       8.31052223       1.59100640      12.25961803       0.00215433       0.00029285       0.00268089
Pt       1.37840163       3.99277697      12.26799429       0.00191573      -0.00051036      -0.00386463
Pt       4.15050088       3.99176891      12.26148260       0.00227260      -0.00214121      -0.00137811
Pt       6.92435185       3.99298826      12.26371064      -0.00512755       0.00774982      -0.00550370
Pt       9.69405840       3.99329769      12.26791555      -0.00134726       0.00367668      -0.00611100
Pt       2.76640627       6.39260235      12.26483803       0.00099527       0.00018178       0.00348025
Pt       5.53845546       6.39313012      12.26572541       0.00759144       0.00093228      -0.00150744
Pt       8.30932073       6.38859433      12.26881734       0.00170541       0.00161902      -0.00479151
Pt      11.08179574       6.39159151      12.26270902      -0.00025685       0.00799099       0.00090297
Pt       4.15267760       8.79195818      12.26435310       0.00411145       0.00402609       0.00598347
Pt       6.92476044       8.79159807      12.26369746       0.00121690       0.00487353       0.01412461
Pt       9.69506442       8.79218362      12.26367563      -0.00496017       0.00056307       0.00567982
Pt      12.46778664       8.79274388      12.26470917      -0.00104310      -0.00204043       0.00084872
Pt      -0.00965433      -0.01439406      14.60370907      -0.00095131      -0.00494886      -0.01132288
Pt       2.76166365      -0.01211347      14.60441521       0.00619816      -0.00355815      -0.00917575
Pt       5.53238250      -0.01808814      14.60535148      -0.00029336      -0.00267986      -0.01662450
Pt       8.30752834      -0.02096562      14.60411333      -0.00760481       0.00376667      -0.01582154
Pt       1.37620678       2.38338899      14.60695028       0.00739912       0.00946115      -0.01693097
Pt       4.14255900       2.38346563      14.60237597       0.01390915       0.01485738      -0.00641747
Pt       6.91293198       2.36881520      14.57841471      -0.00897649       0.00983087      -0.00324833
Pt       9.69930452       2.37516035      14.59192514      -0.00193527       0.00290560       0.00623030
Pt       2.76115634       4.78613543      14.60369514       0.01199265       0.00349002      -0.00236541
Pt       5.52164989       4.78797148      14.59238421      -0.00378698       0.00294443       0.00208671
Pt       8.30565810       4.78495622      14.61447834      -0.01306120       0.00322031      -0.00520623
Pt      11.08486657       4.78620601      14.60442426       0.00216204       0.01193943      -0.00966915
Pt       4.14644249       7.18819125      14.60829390       0.00546488      -0.01381711      -0.02199090
Pt       6.91474633       7.19433681      14.60415393      -0.00078856      -0.01252127      -0.01654891
Pt       9.69559404       7.19569144      14.59417415       0.00128092       0.00420632      -0.00536024
Pt      12.46605726       7.18849279      14.60381764       0.00299405      -0.00001517      -0.00603901
C        8.01578984       4.24772085      17.69592511      -0.00231014      -0.00843887       0.01407139
C        7.26485805       5.44186427      18.27180033       0.00463647      -0.00023757      -0.00230936
C        9.44078386       4.14224615      18.22634994      -0.00241169      -0.00297322       0.00446009
C        8.03182059       6.75046887      18.06184620      -0.00407443       0.00410040       0.00204480
C       10.22458055       5.44126702      18.02032795       0.00600995      -0.00694532       0.00824064
C        9.48162931       6.67137866      18.55008276       0.00357255       0.00368002       0.00550396
C        7.23213392       2.94024606      17.66246536       0.00015787      -0.00528285      -0.01022091
C        6.85712410       2.26621676      18.98804181       0.00164551      -0.00744283       0.01253001
C        6.11513109       0.94959854      18.72888002       0.00137940      -0.00622438       0.00695792
H        8.14857822       4.51060943      16.56919244       0.00648972       0.01024250       0.00529236
H        7.12381861       5.27016912      19.35478094      -0.01216132       0.00752228      -0.00182625
H        6.25809348       5.50378896      17.82739196       0.00997459       0.00480513      -0.00002365
H        9.95935021       3.29442780      17.74892593      -0.00393096       0.01078064      -0.00023166
H        9.39201856       3.91625795      19.30717549       0.00383172      -0.01362916       0.00118785
H        7.50620481       7.59131039      18.53554423       0.00241349       0.00502034      -0.00089552
H        8.02623676       6.97542271      16.97183639       0.00535664       0.00716978      -0.00573973
H       10.39966705       5.56421431      16.92615927      -0.00379083       0.00065717       0.00131383
H       11.22659481       5.36769993      18.46528207       0.00379418       0.00216281       0.00527513
H       10.02353187       7.58777236      18.27228655       0.00407083       0.00441536       0.00695201
H        9.48360560       6.63629828      19.65376740      -0.00421455       0.00005399       0.01132802
H        7.82218867       2.20848018      17.07492305      -0.01210732      -0.00496814      -0.01324067
H        6.29381285       3.12157185      17.10306171      -0.00008022      -0.01534614      -0.00734924
H        6.22532427       2.94040697      19.58641061       0.00458685       0.00868981      -0.00357898
H        7.76466899       2.06955064      19.57878753       0.00907059       0.00698749       0.00393173
H        5.19932123       1.11888216      18.14190475       0.00638353       0.01156945      -0.00558881
H        6.74458212       0.25297694      18.15436722      -0.00595596      -0.00394022      -0.00824399
H        5.82547872       0.44727849      19.66204417       0.01316302       0.01959978       0.00570708
