
     Program PHONON v.7.2 starts on  8Feb2025 at  0:10:25 

     This program is part of the open-source Quantum ESPRESSO suite
     for quantum simulation of materials; please cite
         "P. Giannozzi et al., J. Phys.:Condens. Matter 21 395502 (2009);
         "P. Giannozzi et al., J. Phys.:Condens. Matter 29 465901 (2017);
         "P. Giannozzi et al., J. Chem. Phys. 152 154105 (2020);
          URL http://www.quantum-espresso.org", 
     in publications or presentations arising from this work. More details at
     http://www.quantum-espresso.org/quote

     Parallel version (MPI & OpenMP), running on      28 processor cores
     Number of MPI processes:                 1
     Threads/MPI process:                    28

     MPI processes distributed on     1 nodes
     485025 MiB available memory on the printing compute node when the environment starts

     Reading input from FFph.in
      Title line not specified: using 'default'.

     Reading xml data from directory:

     ./FFPt.save/

     Subspace diagonalization in iterative solution of the eigenvalue problem:
     a serial algorithm will be used

     file Pt.pbe-n-rrkjus_psl.1.0.0.UPF: wavefunction(s)  6S renormalized

     IMPORTANT: XC functional enforced from input :
     Exchange-correlation= PBE
                           (   1   4   3   4   0   0   0)
     Any further DFT definition will be discarded
     Please, verify this is what you really want


     G-vector sticks info
     --------------------
     sticks:   dense  smooth     PW     G-vecs:    dense   smooth      PW
     Sum        8443    4243   1057              1389277   492949   61647

     Using Slab Decomposition


     negative rho (up, down):  9.034E-03 0.000E+00
     Reading collected, re-writing distributed wavefunctions in ./


     Dynamical matrices for ( 1, 1, 1)  uniform grid of q-points
     (   1 q-points):
       N         xq(1)         xq(2)         xq(3) 
       1   0.000000000   0.000000000   0.000000000

     Calculation of q =    0.0000000   0.0000000   0.0000000

     default                                                                    

     bravais-lattice index     =            0
     lattice parameter (alat)  =      20.9522  a.u.
     unit-cell volume          =   17620.7087 (a.u.)^3
     number of atoms/cell      =           59
     number of atomic types    =            4
     kinetic-energy cut-off    =      35.0000  Ry
     charge density cut-off    =     279.3000  Ry
     convergence threshold     =      1.0E-07
     beta                      =       0.7000
     number of iterations used =            4
     Exchange-correlation= PBE
                           (   1   4   3   4   0   0   0)


     celldm(1)=   20.95221  celldm(2)=    0.00000  celldm(3)=    0.00000
     celldm(4)=    0.00000  celldm(5)=    0.00000  celldm(6)=    0.00000

     crystal axes: (cart. coord. in units of alat)
               a(1) = (  1.0000  0.0000  0.0000 )  
               a(2) = (  0.5000  0.8660  0.0000 )  
               a(3) = (  0.0000  0.0000  2.2121 )  

     reciprocal axes: (cart. coord. in units 2 pi/alat)
               b(1) = (  1.0000 -0.5774  0.0000 )  
               b(2) = (  0.0000  1.1547  0.0000 )  
               b(3) = (  0.0000  0.0000  0.4521 )  


     Atoms inside the unit cell: 

     Cartesian axes

     site n.  atom      mass           positions (alat units)
        1     Pt 195.0840   tau(    1) = (    0.12500    0.07217    0.89528  )
        2     Pt 195.0840   tau(    2) = (    0.37499    0.07214    0.89525  )
        3     Pt 195.0840   tau(    3) = (    0.62501    0.07214    0.89525  )
        4     Pt 195.0840   tau(    4) = (    0.87500    0.07217    0.89528  )
        5     Pt 195.0840   tau(    5) = (    0.24997    0.28868    0.89525  )
        6     Pt 195.0840   tau(    6) = (    0.50000    0.28868    0.89521  )
        7     Pt 195.0840   tau(    7) = (    0.75003    0.28868    0.89525  )
        8     Pt 195.0840   tau(    8) = (    1.00000    0.28869    0.89528  )
        9     Pt 195.0840   tau(    9) = (    0.37498    0.50520    0.89525  )
       10     Pt 195.0840   tau(   10) = (    0.62502    0.50520    0.89525  )
       11     Pt 195.0840   tau(   11) = (    0.87502    0.50519    0.89528  )
       12     Pt 195.0840   tau(   12) = (    1.12498    0.50519    0.89528  )
       13     Pt 195.0840   tau(   13) = (    0.50000    0.72169    0.89528  )
       14     Pt 195.0840   tau(   14) = (    0.75001    0.72168    0.89528  )
       15     Pt 195.0840   tau(   15) = (    1.00000    0.72167    0.89528  )
       16     Pt 195.0840   tau(   16) = (    1.24999    0.72168    0.89528  )
       17     Pt 195.0840   tau(   17) = (    0.00106    0.14529    1.10870  )
       18     Pt 195.0840   tau(   18) = (    0.24985    0.14530    1.10701  )
       19     Pt 195.0840   tau(   19) = (    0.49885    0.14510    1.10799  )
       20     Pt 195.0840   tau(   20) = (    0.75018    0.14421    1.10586  )
       21     Pt 195.0840   tau(   21) = (    0.12517    0.36088    1.10626  )
       22     Pt 195.0840   tau(   22) = (    0.37394    0.36041    1.10898  )
       23     Pt 195.0840   tau(   23) = (    0.62444    0.36057    1.10557  )
       24     Pt 195.0840   tau(   24) = (    0.87503    0.36066    1.10558  )
       25     Pt 195.0840   tau(   25) = (    0.24990    0.57635    1.10779  )
       26     Pt 195.0840   tau(   26) = (    0.49925    0.57721    1.10560  )
       27     Pt 195.0840   tau(   27) = (    0.74964    0.57735    1.10544  )
       28     Pt 195.0840   tau(   28) = (    1.00027    0.57734    1.10548  )
       29     Pt 195.0840   tau(   29) = (    0.37477    0.79414    1.10595  )
       30     Pt 195.0840   tau(   30) = (    0.62449    0.79432    1.10543  )
       31     Pt 195.0840   tau(   31) = (    0.87511    0.79434    1.10519  )
       32     Pt 195.0840   tau(   32) = (    1.12525    0.79397    1.10591  )
       33     Pt 195.0840   tau(   33) = (   -0.00053    0.00033    1.31708  )
       34     Pt 195.0840   tau(   34) = (    0.24874   -0.00399    1.31371  )
       35     Pt 195.0840   tau(   35) = (    0.50082   -0.00224    1.31672  )
       36     Pt 195.0840   tau(   36) = (    0.75011    0.00050    1.31771  )
       37     Pt 195.0840   tau(   37) = (    0.12489    0.21907    1.32456  )
       38     Pt 195.0840   tau(   38) = (    0.37686    0.21159    1.32532  )
       39     Pt 195.0840   tau(   39) = (    0.62652    0.21625    1.31630  )
       40     Pt 195.0840   tau(   40) = (    0.87426    0.21738    1.31724  )
       41     Pt 195.0840   tau(   41) = (    0.24778    0.43712    1.32507  )
       42     Pt 195.0840   tau(   42) = (    0.50107    0.43379    1.31523  )
       43     Pt 195.0840   tau(   43) = (    0.74906    0.43347    1.31651  )
       44     Pt 195.0840   tau(   44) = (    0.99641    0.43533    1.31548  )
       45     Pt 195.0840   tau(   45) = (    0.37481    0.65110    1.31692  )
       46     Pt 195.0840   tau(   46) = (    0.62387    0.64904    1.31626  )
       47     Pt 195.0840   tau(   47) = (    0.87372    0.64923    1.31609  )
       48     Pt 195.0840   tau(   48) = (    1.12369    0.65115    1.31704  )
       49     O   15.9990   tau(   49) = (    0.34721    0.38867    1.56309  )
       50     O   15.9990   tau(   50) = (    0.55461    0.14852    1.60909  )
       51     C   12.0110   tau(   51) = (    0.39124    0.27511    1.55644  )
       52     C   12.0110   tau(   52) = (    0.30399    0.19195    1.51559  )
       53     C   12.0110   tau(   53) = (    0.18856    0.25839    1.50145  )
       54     C   12.0110   tau(   54) = (    0.22927    0.38812    1.50777  )
       55     C   12.0110   tau(   55) = (    0.51372    0.25122    1.60133  )
       56     H    1.0080   tau(   56) = (    0.30932    0.09661    1.53817  )
       57     H    1.0080   tau(   57) = (    0.11166    0.23099    1.55740  )
       58     H    1.0080   tau(   58) = (    0.17276    0.45495    1.55300  )
       59     H    1.0080   tau(   59) = (    0.56517    0.33273    1.62937  )

     Computing dynamical matrix for 
                    q = (   0.0000000   0.0000000   0.0000000 )

      2 Sym.Ops. (with q -> -q+G )


     G cutoff = 3105.7825  (1389277 G-vectors)     FFT grid: (120,120,250)
     G cutoff = 1556.7832  ( 492949 G-vectors)  smooth grid: ( 80, 80,180)

     number of k points=     1  Methfessel-Paxton smearing, width (Ry)=  0.1000

     PseudoPot. # 1 for Pt read from file:
     /mnt/research/scbgroup/christina/bio-oil-ECH/pseudo/Pt.pbe-n-rrkjus_psl.1.0.0.UPF
     MD5 check sum: 6bc887cfe28d63a5fc1f72d35a7d3ef7
     Pseudo is Ultrasoft + core correction, Zval = 10.0
     Generated using &quot;atomic&quot; code by A. Dal Corso  v.6.3
     Using radial grid of 1277 points,  6 beta functions with: 
                l(1) =   0
                l(2) =   0
                l(3) =   1
                l(4) =   1
                l(5) =   2
                l(6) =   2
     Q(r) pseudized with 0 coefficients 


     PseudoPot. # 2 for O  read from file:
     /mnt/research/scbgroup/christina/bio-oil-ECH/pseudo/O.pbe-n-rrkjus_psl.1.0.0.UPF
     MD5 check sum: 91400c9766925bcf19f520983a725ff0
     Pseudo is Ultrasoft + core correction, Zval =  6.0
     Generated using &quot;atomic&quot; code by A. Dal Corso  v.6.3MaX
     Using radial grid of 1095 points,  4 beta functions with: 
                l(1) =   0
                l(2) =   0
                l(3) =   1
                l(4) =   1
     Q(r) pseudized with 0 coefficients 


     PseudoPot. # 3 for C  read from file:
     /mnt/research/scbgroup/christina/bio-oil-ECH/pseudo/C.pbe-n-rrkjus_psl.1.0.0.UPF
     MD5 check sum: 1fdd950c42eb37d8afe3dd2f8d12311e
     Pseudo is Ultrasoft + core correction, Zval =  4.0
     Generated using &quot;atomic&quot; code by A. Dal Corso  v.6.3MaX
     Using radial grid of 1073 points,  4 beta functions with: 
                l(1) =   0
                l(2) =   0
                l(3) =   1
                l(4) =   1
     Q(r) pseudized with 0 coefficients 


     PseudoPot. # 4 for H  read from file:
     /mnt/research/scbgroup/christina/bio-oil-ECH/pseudo/H.pbe-rrkjus_psl.1.0.0.UPF
     MD5 check sum: 3f4114867bd07edc7f1424d066fc1888
     Pseudo is Ultrasoft, Zval =  1.0
     Generated using &quot;atomic&quot; code by A. Dal Corso  v.6.3MaX
     Using radial grid of  929 points,  2 beta functions with: 
                l(1) =   0
                l(2) =   0
     Q(r) pseudized with 0 coefficients 


     Mode symmetry, C_1 (1)     point group:


     Atomic displacements:
     There are  177 irreducible representations

     Representation     1      1 modes -  Not done in this run

     Representation     2      1 modes -  Not done in this run

     Representation     3      1 modes -  Not done in this run

     Representation     4      1 modes -  Not done in this run

     Representation     5      1 modes -  Not done in this run

     Representation     6      1 modes -  Not done in this run

     Representation     7      1 modes -  Not done in this run

     Representation     8      1 modes -  Not done in this run

     Representation     9      1 modes -  Not done in this run

     Representation    10      1 modes -  Not done in this run

     Representation    11      1 modes -  Not done in this run

     Representation    12      1 modes -  Not done in this run

     Representation    13      1 modes -  Not done in this run

     Representation    14      1 modes -  Not done in this run

     Representation    15      1 modes -  Not done in this run

     Representation    16      1 modes -  Not done in this run

     Representation    17      1 modes -  Not done in this run

     Representation    18      1 modes -  Not done in this run

     Representation    19      1 modes -  Not done in this run

     Representation    20      1 modes -  Not done in this run

     Representation    21      1 modes -  Not done in this run

     Representation    22      1 modes -  Not done in this run

     Representation    23      1 modes -  Not done in this run

     Representation    24      1 modes -  Not done in this run

     Representation    25      1 modes -  Not done in this run

     Representation    26      1 modes -  Not done in this run

     Representation    27      1 modes -  Not done in this run

     Representation    28      1 modes -  Not done in this run

     Representation    29      1 modes -  Not done in this run

     Representation    30      1 modes -  Not done in this run

     Representation    31      1 modes -  Not done in this run

     Representation    32      1 modes -  Not done in this run

     Representation    33      1 modes -  Not done in this run

     Representation    34      1 modes -  Not done in this run

     Representation    35      1 modes -  Not done in this run

     Representation    36      1 modes -  Not done in this run

     Representation    37      1 modes -  Not done in this run

     Representation    38      1 modes -  Not done in this run

     Representation    39      1 modes -  Not done in this run

     Representation    40      1 modes -  Not done in this run

     Representation    41      1 modes -  Not done in this run

     Representation    42      1 modes -  Not done in this run

     Representation    43      1 modes -  Not done in this run

     Representation    44      1 modes -  Not done in this run

     Representation    45      1 modes -  Not done in this run

     Representation    46      1 modes -  Not done in this run

     Representation    47      1 modes -  Not done in this run

     Representation    48      1 modes -  Not done in this run

     Representation    49      1 modes -  Not done in this run

     Representation    50      1 modes -  Not done in this run

     Representation    51      1 modes -  Not done in this run

     Representation    52      1 modes -  Not done in this run

     Representation    53      1 modes -  Not done in this run

     Representation    54      1 modes -  Not done in this run

     Representation    55      1 modes -  Not done in this run

     Representation    56      1 modes -  Not done in this run

     Representation    57      1 modes -  Not done in this run

     Representation    58      1 modes -  Not done in this run

     Representation    59      1 modes -  Not done in this run

     Representation    60      1 modes -  Not done in this run

     Representation    61      1 modes -  Not done in this run

     Representation    62      1 modes -  Not done in this run

     Representation    63      1 modes -  Not done in this run

     Representation    64      1 modes -  Not done in this run

     Representation    65      1 modes -  Not done in this run

     Representation    66      1 modes -  Not done in this run

     Representation    67      1 modes -  Not done in this run

     Representation    68      1 modes -  Not done in this run

     Representation    69      1 modes -  Not done in this run

     Representation    70      1 modes -  Not done in this run

     Representation    71      1 modes -  Not done in this run

     Representation    72      1 modes -  Not done in this run

     Representation    73      1 modes -  Not done in this run

     Representation    74      1 modes -  Not done in this run

     Representation    75      1 modes -  Not done in this run

     Representation    76      1 modes -  Not done in this run

     Representation    77      1 modes -  Not done in this run

     Representation    78      1 modes -  Not done in this run

     Representation    79      1 modes -  Not done in this run

     Representation    80      1 modes -  Not done in this run

     Representation    81      1 modes -  Not done in this run

     Representation    82      1 modes -  Not done in this run

     Representation    83      1 modes -  Not done in this run

     Representation    84      1 modes -  Not done in this run

     Representation    85      1 modes -  Not done in this run

     Representation    86      1 modes -  Not done in this run

     Representation    87      1 modes -  Not done in this run

     Representation    88      1 modes -  Not done in this run

     Representation    89      1 modes -  Not done in this run

     Representation    90      1 modes -  Not done in this run

     Representation    91      1 modes -  Not done in this run

     Representation    92      1 modes -  Not done in this run

     Representation    93      1 modes -  Not done in this run

     Representation    94      1 modes -  Not done in this run

     Representation    95      1 modes -  Not done in this run

     Representation    96      1 modes -  Not done in this run

     Representation    97      1 modes -  Not done in this run

     Representation    98      1 modes -  Not done in this run

     Representation    99      1 modes -  Not done in this run

     Representation   100      1 modes -  Not done in this run

     Representation   101      1 modes -  Not done in this run

     Representation   102      1 modes -  Not done in this run

     Representation   103      1 modes -  Not done in this run

     Representation   104      1 modes -  Not done in this run

     Representation   105      1 modes -  Not done in this run

     Representation   106      1 modes -  Not done in this run

     Representation   107      1 modes -  Not done in this run

     Representation   108      1 modes -  Not done in this run

     Representation   109      1 modes -  Not done in this run

     Representation   110      1 modes -  Not done in this run

     Representation   111      1 modes -  Not done in this run

     Representation   112      1 modes -  Not done in this run

     Representation   113      1 modes -  Not done in this run

     Representation   114      1 modes -  Not done in this run

     Representation   115      1 modes -  Not done in this run

     Representation   116      1 modes -  Not done in this run

     Representation   117      1 modes -  Not done in this run

     Representation   118      1 modes -  Not done in this run

     Representation   119      1 modes -  Not done in this run

     Representation   120      1 modes -  Not done in this run

     Representation   121      1 modes -  Not done in this run

     Representation   122      1 modes -  Not done in this run

     Representation   123      1 modes -  Not done in this run

     Representation   124      1 modes -  Not done in this run

     Representation   125      1 modes -  Not done in this run

     Representation   126      1 modes -  Not done in this run

     Representation   127      1 modes -  Not done in this run

     Representation   128      1 modes -  Not done in this run

     Representation   129      1 modes -  Not done in this run

     Representation   130      1 modes -  Not done in this run

     Representation   131      1 modes -  Not done in this run

     Representation   132      1 modes -  Not done in this run

     Representation   133      1 modes -  Not done in this run

     Representation   134      1 modes -  Not done in this run

     Representation   135      1 modes -  Not done in this run

     Representation   136      1 modes -  Not done in this run

     Representation   137      1 modes -  Not done in this run

     Representation   138      1 modes -  Not done in this run

     Representation   139      1 modes -  Not done in this run

     Representation   140      1 modes -  Not done in this run

     Representation   141      1 modes -  Not done in this run

     Representation   142      1 modes -  Not done in this run

     Representation   143      1 modes -  Not done in this run

     Representation   144      1 modes -  Not done in this run

     Representation   145      1 modes -  To be done

     Representation   146      1 modes -  To be done

     Representation   147      1 modes -  To be done

     Representation   148      1 modes -  To be done

     Representation   149      1 modes -  To be done

     Representation   150      1 modes -  To be done

     Representation   151      1 modes -  To be done

     Representation   152      1 modes -  To be done

     Representation   153      1 modes -  To be done

     Representation   154      1 modes -  To be done

     Representation   155      1 modes -  To be done

     Representation   156      1 modes -  To be done

     Representation   157      1 modes -  To be done

     Representation   158      1 modes -  To be done

     Representation   159      1 modes -  To be done

     Representation   160      1 modes -  To be done

     Representation   161      1 modes -  To be done

     Representation   162      1 modes -  To be done

     Representation   163      1 modes -  To be done

     Representation   164      1 modes -  To be done

     Representation   165      1 modes -  To be done

     Representation   166      1 modes -  To be done

     Representation   167      1 modes -  To be done

     Representation   168      1 modes -  To be done

     Representation   169      1 modes -  To be done

     Representation   170      1 modes -  To be done

     Representation   171      1 modes -  To be done

     Representation   172      1 modes -  To be done

     Representation   173      1 modes -  To be done

     Representation   174      1 modes -  To be done

     Representation   175      1 modes -  To be done

     Representation   176      1 modes -  To be done

     Representation   177      1 modes -  To be done

     Compute atoms:    49,   50,   51,   52,   53,   54,   55,   56,
   57,   58,   59,



     Alpha used in Ewald sum =   2.2000

     negative rho (up, down):  9.034E-03 0.000E+00
     PHONON       :   1d 5h44m CPU      3h46m WALL



     Representation # 145 mode # 145

     Self-consistent Calculation

     Pert. #  1: Fermi energy shift (Ry) =    -2.4361E-03     0.0000E+00

      iter #   1 total cpu time : 13898.6 secs   av.it.:   7.0
      thresh= 1.000E-02 alpha_mix =  0.700 |ddv_scf|^2 =  2.446E-08

     End of self-consistent calculation

     Convergence has been achieved 


     Representation # 146 mode # 146

     Self-consistent Calculation

     Pert. #  1: Fermi energy shift (Ry) =     4.4673E-03     0.0000E+00

      iter #   1 total cpu time : 14255.5 secs   av.it.:   7.0
      thresh= 1.000E-02 alpha_mix =  0.700 |ddv_scf|^2 =  4.042E-08

     End of self-consistent calculation

     Convergence has been achieved 


     Representation # 147 mode # 147

     Self-consistent Calculation

     Pert. #  1: Fermi energy shift (Ry) =     1.0966E-01     0.0000E+00

      iter #   1 total cpu time : 14637.5 secs   av.it.:   7.0
      thresh= 1.000E-02 alpha_mix =  0.700 |ddv_scf|^2 =  8.345E-08

     End of self-consistent calculation

     Convergence has been achieved 


     Representation # 148 mode # 148

     Self-consistent Calculation

     Pert. #  1: Fermi energy shift (Ry) =     1.8609E-03     0.0000E+00

      iter #   1 total cpu time : 15003.6 secs   av.it.:   6.0
      thresh= 1.000E-02 alpha_mix =  0.700 |ddv_scf|^2 =  1.718E-08

     End of self-consistent calculation

     Convergence has been achieved 


     Representation # 149 mode # 149

     Self-consistent Calculation

     Pert. #  1: Fermi energy shift (Ry) =    -2.9124E-03     0.0000E+00

      iter #   1 total cpu time : 15374.3 secs   av.it.:   6.0
      thresh= 1.000E-02 alpha_mix =  0.700 |ddv_scf|^2 =  2.339E-08

     End of self-consistent calculation

     Convergence has been achieved 


     Representation # 150 mode # 150

     Self-consistent Calculation

     Pert. #  1: Fermi energy shift (Ry) =     1.0609E-01     0.0000E+00

      iter #   1 total cpu time : 15735.8 secs   av.it.:   6.0
      thresh= 1.000E-02 alpha_mix =  0.700 |ddv_scf|^2 =  1.127E-07

     Pert. #  1: Fermi energy shift (Ry) =    -1.0826E-01     0.0000E+00

      iter #   2 total cpu time : 16295.3 secs   av.it.:  27.0
      thresh= 3.357E-05 alpha_mix =  0.700 |ddv_scf|^2 =  1.058E-04

     Pert. #  1: Fermi energy shift (Ry) =    -1.3177E-01     0.0000E+00

      iter #   3 total cpu time : 16722.2 secs   av.it.:  17.0
      thresh= 1.029E-03 alpha_mix =  0.700 |ddv_scf|^2 =  5.685E-07

     Pert. #  1: Fermi energy shift (Ry) =    -6.1559E-02     0.0000E+00

      iter #   4 total cpu time : 17229.0 secs   av.it.:  23.0
      thresh= 7.540E-05 alpha_mix =  0.700 |ddv_scf|^2 =  7.123E-07

     Pert. #  1: Fermi energy shift (Ry) =     6.9643E-02     0.0000E+00

      iter #   5 total cpu time : 17723.3 secs   av.it.:  22.0
      thresh= 8.440E-05 alpha_mix =  0.700 |ddv_scf|^2 =  3.534E-07

     Pert. #  1: Fermi energy shift (Ry) =     4.8179E-02     0.0000E+00

      iter #   6 total cpu time : 18178.6 secs   av.it.:  23.0
      thresh= 5.945E-05 alpha_mix =  0.700 |ddv_scf|^2 =  6.981E-08

     End of self-consistent calculation

     Convergence has been achieved 


     Representation # 151 mode # 151

     Self-consistent Calculation

     Pert. #  1: Fermi energy shift (Ry) =    -3.6512E-03     0.0000E+00

      iter #   1 total cpu time : 18507.2 secs   av.it.:   6.0
      thresh= 1.000E-02 alpha_mix =  0.700 |ddv_scf|^2 =  1.610E-08

     End of self-consistent calculation

     Convergence has been achieved 


     Representation # 152 mode # 152

     Self-consistent Calculation

     Pert. #  1: Fermi energy shift (Ry) =     1.1952E-03     0.0000E+00

      iter #   1 total cpu time : 18838.2 secs   av.it.:   6.0
      thresh= 1.000E-02 alpha_mix =  0.700 |ddv_scf|^2 =  9.797E-09

     End of self-consistent calculation

     Convergence has been achieved 


     Representation # 153 mode # 153

     Self-consistent Calculation

     Pert. #  1: Fermi energy shift (Ry) =     7.2253E-02     0.0000E+00

      iter #   1 total cpu time : 19170.4 secs   av.it.:   6.0
      thresh= 1.000E-02 alpha_mix =  0.700 |ddv_scf|^2 =  3.058E-08

     End of self-consistent calculation

     Convergence has been achieved 


     Representation # 154 mode # 154

     Self-consistent Calculation

     Pert. #  1: Fermi energy shift (Ry) =    -4.2392E-03     0.0000E+00

      iter #   1 total cpu time : 19498.4 secs   av.it.:   6.0
      thresh= 1.000E-02 alpha_mix =  0.700 |ddv_scf|^2 =  2.229E-08

     End of self-consistent calculation

     Convergence has been achieved 


     Representation # 155 mode # 155

     Self-consistent Calculation

     Pert. #  1: Fermi energy shift (Ry) =    -2.0363E-03     0.0000E+00

      iter #   1 total cpu time : 19833.1 secs   av.it.:   6.0
      thresh= 1.000E-02 alpha_mix =  0.700 |ddv_scf|^2 =  1.837E-08

     End of self-consistent calculation

     Convergence has been achieved 


     Representation # 156 mode # 156

     Self-consistent Calculation

     Pert. #  1: Fermi energy shift (Ry) =     7.4627E-02     0.0000E+00

      iter #   1 total cpu time : 20170.3 secs   av.it.:   7.0
      thresh= 1.000E-02 alpha_mix =  0.700 |ddv_scf|^2 =  2.837E-08

     End of self-consistent calculation

     Convergence has been achieved 


     Representation # 157 mode # 157

     Self-consistent Calculation

     Pert. #  1: Fermi energy shift (Ry) =    -1.8999E-03     0.0000E+00

      iter #   1 total cpu time : 20502.2 secs   av.it.:   6.0
      thresh= 1.000E-02 alpha_mix =  0.700 |ddv_scf|^2 =  1.787E-08

     End of self-consistent calculation

     Convergence has been achieved 


     Representation # 158 mode # 158

     Self-consistent Calculation

     Pert. #  1: Fermi energy shift (Ry) =     8.0326E-06     0.0000E+00

      iter #   1 total cpu time : 20832.1 secs   av.it.:   6.0
      thresh= 1.000E-02 alpha_mix =  0.700 |ddv_scf|^2 =  1.384E-08

     End of self-consistent calculation

     Convergence has been achieved 


     Representation # 159 mode # 159

     Self-consistent Calculation

     Pert. #  1: Fermi energy shift (Ry) =     7.5449E-02     0.0000E+00

      iter #   1 total cpu time : 21172.1 secs   av.it.:   7.0
      thresh= 1.000E-02 alpha_mix =  0.700 |ddv_scf|^2 =  2.638E-08

     End of self-consistent calculation

     Convergence has been achieved 


     Representation # 160 mode # 160

     Self-consistent Calculation

     Pert. #  1: Fermi energy shift (Ry) =    -2.6434E-03     0.0000E+00

      iter #   1 total cpu time : 21505.1 secs   av.it.:   6.0
      thresh= 1.000E-02 alpha_mix =  0.700 |ddv_scf|^2 =  1.855E-08

     End of self-consistent calculation

     Convergence has been achieved 


     Representation # 161 mode # 161

     Self-consistent Calculation

     Pert. #  1: Fermi energy shift (Ry) =     2.2228E-04     0.0000E+00

      iter #   1 total cpu time : 21834.5 secs   av.it.:   6.0
      thresh= 1.000E-02 alpha_mix =  0.700 |ddv_scf|^2 =  1.292E-08

     End of self-consistent calculation

     Convergence has been achieved 


     Representation # 162 mode # 162

     Self-consistent Calculation

     Pert. #  1: Fermi energy shift (Ry) =     7.5666E-02     0.0000E+00

      iter #   1 total cpu time : 22173.0 secs   av.it.:   7.0
      thresh= 1.000E-02 alpha_mix =  0.700 |ddv_scf|^2 =  2.706E-08

     End of self-consistent calculation

     Convergence has been achieved 


     Representation # 163 mode # 163

     Self-consistent Calculation

     Pert. #  1: Fermi energy shift (Ry) =     2.1795E-03     0.0000E+00

      iter #   1 total cpu time : 22495.2 secs   av.it.:   5.0
      thresh= 1.000E-02 alpha_mix =  0.700 |ddv_scf|^2 =  1.179E-08

     End of self-consistent calculation

     Convergence has been achieved 


     Representation # 164 mode # 164

     Self-consistent Calculation

     Pert. #  1: Fermi energy shift (Ry) =     2.2402E-03     0.0000E+00

      iter #   1 total cpu time : 22817.0 secs   av.it.:   5.0
      thresh= 1.000E-02 alpha_mix =  0.700 |ddv_scf|^2 =  1.143E-08

     End of self-consistent calculation

     Convergence has been achieved 


     Representation # 165 mode # 165

     Self-consistent Calculation

     Pert. #  1: Fermi energy shift (Ry) =     7.1698E-02     0.0000E+00

      iter #   1 total cpu time : 23141.3 secs   av.it.:   6.0
      thresh= 1.000E-02 alpha_mix =  0.700 |ddv_scf|^2 =  4.972E-08

     End of self-consistent calculation

     Convergence has been achieved 


     Representation # 166 mode # 166

     Self-consistent Calculation

     Pert. #  1: Fermi energy shift (Ry) =    -5.1487E-04     0.0000E+00

      iter #   1 total cpu time : 23428.0 secs   av.it.:   2.0
      thresh= 1.000E-02 alpha_mix =  0.700 |ddv_scf|^2 =  6.378E-10

     End of self-consistent calculation

     Convergence has been achieved 


     Representation # 167 mode # 167

     Self-consistent Calculation

     Pert. #  1: Fermi energy shift (Ry) =    -6.3793E-04     0.0000E+00

      iter #   1 total cpu time : 23725.9 secs   av.it.:   3.0
      thresh= 1.000E-02 alpha_mix =  0.700 |ddv_scf|^2 =  1.139E-09

     End of self-consistent calculation

     Convergence has been achieved 


     Representation # 168 mode # 168

     Self-consistent Calculation

     Pert. #  1: Fermi energy shift (Ry) =     1.9086E-02     0.0000E+00

      iter #   1 total cpu time : 24023.7 secs   av.it.:   3.0
      thresh= 1.000E-02 alpha_mix =  0.700 |ddv_scf|^2 =  2.142E-09

     End of self-consistent calculation

     Convergence has been achieved 


     Representation # 169 mode # 169

     Self-consistent Calculation

     Pert. #  1: Fermi energy shift (Ry) =    -5.7982E-04     0.0000E+00

      iter #   1 total cpu time : 24313.6 secs   av.it.:   3.0
      thresh= 1.000E-02 alpha_mix =  0.700 |ddv_scf|^2 =  9.248E-10

     End of self-consistent calculation

     Convergence has been achieved 


     Representation # 170 mode # 170

     Self-consistent Calculation

     Pert. #  1: Fermi energy shift (Ry) =    -1.2181E-04     0.0000E+00

      iter #   1 total cpu time : 24594.3 secs   av.it.:   2.0
      thresh= 1.000E-02 alpha_mix =  0.700 |ddv_scf|^2 =  3.993E-10

     End of self-consistent calculation

     Convergence has been achieved 


     Representation # 171 mode # 171

     Self-consistent Calculation

     Pert. #  1: Fermi energy shift (Ry) =     1.8664E-02     0.0000E+00

      iter #   1 total cpu time : 24891.3 secs   av.it.:   3.0
      thresh= 1.000E-02 alpha_mix =  0.700 |ddv_scf|^2 =  2.229E-09

     End of self-consistent calculation

     Convergence has been achieved 


     Representation # 172 mode # 172

     Self-consistent Calculation

     Pert. #  1: Fermi energy shift (Ry) =    -4.7125E-04     0.0000E+00

      iter #   1 total cpu time : 25181.5 secs   av.it.:   3.0
      thresh= 1.000E-02 alpha_mix =  0.700 |ddv_scf|^2 =  7.286E-10

     End of self-consistent calculation

     Convergence has been achieved 


     Representation # 173 mode # 173

     Self-consistent Calculation

     Pert. #  1: Fermi energy shift (Ry) =     3.8793E-04     0.0000E+00

      iter #   1 total cpu time : 25471.2 secs   av.it.:   3.0
      thresh= 1.000E-02 alpha_mix =  0.700 |ddv_scf|^2 =  7.075E-10

     End of self-consistent calculation

     Convergence has been achieved 


     Representation # 174 mode # 174

     Self-consistent Calculation

     Pert. #  1: Fermi energy shift (Ry) =     1.8777E-02     0.0000E+00

      iter #   1 total cpu time : 25767.7 secs   av.it.:   3.0
      thresh= 1.000E-02 alpha_mix =  0.700 |ddv_scf|^2 =  2.252E-09

     End of self-consistent calculation

     Convergence has been achieved 


     Representation # 175 mode # 175

     Self-consistent Calculation

     Pert. #  1: Fermi energy shift (Ry) =     7.4874E-04     0.0000E+00

      iter #   1 total cpu time : 26055.4 secs   av.it.:   2.0
      thresh= 1.000E-02 alpha_mix =  0.700 |ddv_scf|^2 =  7.841E-10

     End of self-consistent calculation

     Convergence has been achieved 


     Representation # 176 mode # 176

     Self-consistent Calculation

     Pert. #  1: Fermi energy shift (Ry) =     9.9235E-04     0.0000E+00

      iter #   1 total cpu time : 26378.6 secs   av.it.:   2.0
      thresh= 1.000E-02 alpha_mix =  0.700 |ddv_scf|^2 =  1.104E-09

     End of self-consistent calculation

     Convergence has been achieved 


     Representation # 177 mode # 177

     Self-consistent Calculation

     Pert. #  1: Fermi energy shift (Ry) =     1.7697E-02     0.0000E+00

      iter #   1 total cpu time : 26871.5 secs   av.it.:   3.0
      thresh= 1.000E-02 alpha_mix =  0.700 |ddv_scf|^2 =  3.628E-09

     End of self-consistent calculation

     Convergence has been achieved 

     Number of q in the star =    1
     List of q in the star:
          1   0.000000000   0.000000000   0.000000000

     Diagonalizing the dynamical matrix

     q = (    0.000000000   0.000000000   0.000000000 ) 

 **************************************************************************
     freq (    1) =    -180.853942 [THz] =   -6032.638167 [cm-1]
     freq (    2) =    -177.358999 [THz] =   -5916.059389 [cm-1]
     freq (    3) =    -164.391815 [THz] =   -5483.520712 [cm-1]
     freq (    4) =    -149.785074 [THz] =   -4996.292260 [cm-1]
     freq (    5) =    -142.946988 [THz] =   -4768.198273 [cm-1]
     freq (    6) =    -134.127268 [THz] =   -4474.004096 [cm-1]
     freq (    7) =    -121.168378 [THz] =   -4041.742054 [cm-1]
     freq (    8) =    -113.569457 [THz] =   -3788.269321 [cm-1]
     freq (    9) =    -109.087739 [THz] =   -3638.775292 [cm-1]
     freq (   10) =     -96.064364 [THz] =   -3204.362257 [cm-1]
     freq (   11) =     -94.271747 [THz] =   -3144.566988 [cm-1]
     freq (   12) =     -86.839346 [THz] =   -2896.648791 [cm-1]
     freq (   13) =     -82.785116 [THz] =   -2761.414237 [cm-1]
     freq (   14) =     -73.435337 [THz] =   -2449.539181 [cm-1]
     freq (   15) =     -70.524806 [THz] =   -2352.454321 [cm-1]
     freq (   16) =     -60.422256 [THz] =   -2015.469509 [cm-1]
     freq (   17) =     -58.346871 [THz] =   -1946.242130 [cm-1]
     freq (   18) =     -53.438295 [THz] =   -1782.509653 [cm-1]
     freq (   19) =     -49.678858 [THz] =   -1657.108328 [cm-1]
     freq (   20) =     -44.394684 [THz] =   -1480.847274 [cm-1]
     freq (   21) =     -36.407238 [THz] =   -1214.414757 [cm-1]
     freq (   22) =     -33.291458 [THz] =   -1110.483497 [cm-1]
     freq (   23) =     -27.082217 [THz] =    -903.365509 [cm-1]
     freq (   24) =     -24.500057 [THz] =    -817.233922 [cm-1]
     freq (   25) =     -22.217880 [THz] =    -741.108694 [cm-1]
     freq (   26) =     -18.350868 [THz] =    -612.119056 [cm-1]
     freq (   27) =     -16.414821 [THz] =    -547.539493 [cm-1]
     freq (   28) =      -8.762626 [THz] =    -292.289727 [cm-1]
     freq (   29) =      -3.786956 [THz] =    -126.319270 [cm-1]
     freq (   30) =      -2.817143 [THz] =     -93.969761 [cm-1]
     freq (   31) =      -1.619037 [THz] =     -54.005274 [cm-1]
     freq (   32) =      -1.261709 [THz] =     -42.086097 [cm-1]
     freq (   33) =      -0.989159 [THz] =     -32.994803 [cm-1]
     freq (   34) =      -0.000001 [THz] =      -0.000025 [cm-1]
     freq (   35) =      -0.000001 [THz] =      -0.000020 [cm-1]
     freq (   36) =      -0.000001 [THz] =      -0.000017 [cm-1]
     freq (   37) =      -0.000001 [THz] =      -0.000017 [cm-1]
     freq (   38) =      -0.000000 [THz] =      -0.000016 [cm-1]
     freq (   39) =      -0.000000 [THz] =      -0.000016 [cm-1]
     freq (   40) =      -0.000000 [THz] =      -0.000015 [cm-1]
     freq (   41) =      -0.000000 [THz] =      -0.000014 [cm-1]
     freq (   42) =      -0.000000 [THz] =      -0.000013 [cm-1]
     freq (   43) =      -0.000000 [THz] =      -0.000013 [cm-1]
     freq (   44) =      -0.000000 [THz] =      -0.000013 [cm-1]
     freq (   45) =      -0.000000 [THz] =      -0.000012 [cm-1]
     freq (   46) =      -0.000000 [THz] =      -0.000012 [cm-1]
     freq (   47) =      -0.000000 [THz] =      -0.000012 [cm-1]
     freq (   48) =      -0.000000 [THz] =      -0.000012 [cm-1]
     freq (   49) =      -0.000000 [THz] =      -0.000011 [cm-1]
     freq (   50) =      -0.000000 [THz] =      -0.000011 [cm-1]
     freq (   51) =      -0.000000 [THz] =      -0.000011 [cm-1]
     freq (   52) =      -0.000000 [THz] =      -0.000010 [cm-1]
     freq (   53) =      -0.000000 [THz] =      -0.000010 [cm-1]
     freq (   54) =      -0.000000 [THz] =      -0.000010 [cm-1]
     freq (   55) =      -0.000000 [THz] =      -0.000010 [cm-1]
     freq (   56) =      -0.000000 [THz] =      -0.000009 [cm-1]
     freq (   57) =      -0.000000 [THz] =      -0.000009 [cm-1]
     freq (   58) =      -0.000000 [THz] =      -0.000009 [cm-1]
     freq (   59) =      -0.000000 [THz] =      -0.000008 [cm-1]
     freq (   60) =      -0.000000 [THz] =      -0.000008 [cm-1]
     freq (   61) =      -0.000000 [THz] =      -0.000008 [cm-1]
     freq (   62) =      -0.000000 [THz] =      -0.000008 [cm-1]
     freq (   63) =      -0.000000 [THz] =      -0.000007 [cm-1]
     freq (   64) =      -0.000000 [THz] =      -0.000007 [cm-1]
     freq (   65) =      -0.000000 [THz] =      -0.000007 [cm-1]
     freq (   66) =      -0.000000 [THz] =      -0.000007 [cm-1]
     freq (   67) =      -0.000000 [THz] =      -0.000006 [cm-1]
     freq (   68) =      -0.000000 [THz] =      -0.000006 [cm-1]
     freq (   69) =      -0.000000 [THz] =      -0.000006 [cm-1]
     freq (   70) =      -0.000000 [THz] =      -0.000006 [cm-1]
     freq (   71) =      -0.000000 [THz] =      -0.000006 [cm-1]
     freq (   72) =      -0.000000 [THz] =      -0.000005 [cm-1]
     freq (   73) =      -0.000000 [THz] =      -0.000005 [cm-1]
     freq (   74) =      -0.000000 [THz] =      -0.000005 [cm-1]
     freq (   75) =      -0.000000 [THz] =      -0.000005 [cm-1]
     freq (   76) =      -0.000000 [THz] =      -0.000004 [cm-1]
     freq (   77) =      -0.000000 [THz] =      -0.000004 [cm-1]
     freq (   78) =      -0.000000 [THz] =      -0.000004 [cm-1]
     freq (   79) =      -0.000000 [THz] =      -0.000004 [cm-1]
     freq (   80) =      -0.000000 [THz] =      -0.000004 [cm-1]
     freq (   81) =      -0.000000 [THz] =      -0.000003 [cm-1]
     freq (   82) =      -0.000000 [THz] =      -0.000003 [cm-1]
     freq (   83) =      -0.000000 [THz] =      -0.000003 [cm-1]
     freq (   84) =      -0.000000 [THz] =      -0.000003 [cm-1]
     freq (   85) =      -0.000000 [THz] =      -0.000002 [cm-1]
     freq (   86) =      -0.000000 [THz] =      -0.000002 [cm-1]
     freq (   87) =      -0.000000 [THz] =      -0.000001 [cm-1]
     freq (   88) =       0.000000 [THz] =       0.000001 [cm-1]
     freq (   89) =       0.000000 [THz] =       0.000001 [cm-1]
     freq (   90) =       0.000000 [THz] =       0.000002 [cm-1]
     freq (   91) =       0.000000 [THz] =       0.000002 [cm-1]
     freq (   92) =       0.000000 [THz] =       0.000003 [cm-1]
     freq (   93) =       0.000000 [THz] =       0.000003 [cm-1]
     freq (   94) =       0.000000 [THz] =       0.000003 [cm-1]
     freq (   95) =       0.000000 [THz] =       0.000003 [cm-1]
     freq (   96) =       0.000000 [THz] =       0.000003 [cm-1]
     freq (   97) =       0.000000 [THz] =       0.000004 [cm-1]
     freq (   98) =       0.000000 [THz] =       0.000004 [cm-1]
     freq (   99) =       0.000000 [THz] =       0.000004 [cm-1]
     freq (  100) =       0.000000 [THz] =       0.000004 [cm-1]
     freq (  101) =       0.000000 [THz] =       0.000005 [cm-1]
     freq (  102) =       0.000000 [THz] =       0.000005 [cm-1]
     freq (  103) =       0.000000 [THz] =       0.000005 [cm-1]
     freq (  104) =       0.000000 [THz] =       0.000005 [cm-1]
     freq (  105) =       0.000000 [THz] =       0.000005 [cm-1]
     freq (  106) =       0.000000 [THz] =       0.000006 [cm-1]
     freq (  107) =       0.000000 [THz] =       0.000006 [cm-1]
     freq (  108) =       0.000000 [THz] =       0.000006 [cm-1]
     freq (  109) =       0.000000 [THz] =       0.000006 [cm-1]
     freq (  110) =       0.000000 [THz] =       0.000006 [cm-1]
     freq (  111) =       0.000000 [THz] =       0.000007 [cm-1]
     freq (  112) =       0.000000 [THz] =       0.000007 [cm-1]
     freq (  113) =       0.000000 [THz] =       0.000007 [cm-1]
     freq (  114) =       0.000000 [THz] =       0.000007 [cm-1]
     freq (  115) =       0.000000 [THz] =       0.000008 [cm-1]
     freq (  116) =       0.000000 [THz] =       0.000008 [cm-1]
     freq (  117) =       0.000000 [THz] =       0.000008 [cm-1]
     freq (  118) =       0.000000 [THz] =       0.000008 [cm-1]
     freq (  119) =       0.000000 [THz] =       0.000009 [cm-1]
     freq (  120) =       0.000000 [THz] =       0.000009 [cm-1]
     freq (  121) =       0.000000 [THz] =       0.000009 [cm-1]
     freq (  122) =       0.000000 [THz] =       0.000009 [cm-1]
     freq (  123) =       0.000000 [THz] =       0.000010 [cm-1]
     freq (  124) =       0.000000 [THz] =       0.000010 [cm-1]
     freq (  125) =       0.000000 [THz] =       0.000010 [cm-1]
     freq (  126) =       0.000000 [THz] =       0.000010 [cm-1]
     freq (  127) =       0.000000 [THz] =       0.000011 [cm-1]
     freq (  128) =       0.000000 [THz] =       0.000011 [cm-1]
     freq (  129) =       0.000000 [THz] =       0.000011 [cm-1]
     freq (  130) =       0.000000 [THz] =       0.000011 [cm-1]
     freq (  131) =       0.000000 [THz] =       0.000012 [cm-1]
     freq (  132) =       0.000000 [THz] =       0.000012 [cm-1]
     freq (  133) =       0.000000 [THz] =       0.000013 [cm-1]
     freq (  134) =       0.000000 [THz] =       0.000013 [cm-1]
     freq (  135) =       0.000000 [THz] =       0.000014 [cm-1]
     freq (  136) =       0.000000 [THz] =       0.000014 [cm-1]
     freq (  137) =       0.000000 [THz] =       0.000014 [cm-1]
     freq (  138) =       0.000000 [THz] =       0.000016 [cm-1]
     freq (  139) =       0.000000 [THz] =       0.000016 [cm-1]
     freq (  140) =       0.000001 [THz] =       0.000017 [cm-1]
     freq (  141) =       0.000001 [THz] =       0.000018 [cm-1]
     freq (  142) =       0.000001 [THz] =       0.000020 [cm-1]
     freq (  143) =       0.000001 [THz] =       0.000023 [cm-1]
     freq (  144) =       0.000001 [THz] =       0.000028 [cm-1]
     freq (  145) =       0.452018 [THz] =      15.077699 [cm-1]
     freq (  146) =       0.773846 [THz] =      25.812721 [cm-1]
     freq (  147) =       0.898580 [THz] =      29.973393 [cm-1]
     freq (  148) =       1.026392 [THz] =      34.236766 [cm-1]
     freq (  149) =       1.247332 [THz] =      41.606511 [cm-1]
     freq (  150) =       1.502969 [THz] =      50.133643 [cm-1]
     freq (  151) =       1.906933 [THz] =      63.608453 [cm-1]
     freq (  152) =       2.443508 [THz] =      81.506652 [cm-1]
     freq (  153) =       3.779088 [THz] =     126.056814 [cm-1]
     freq (  154) =       4.294800 [THz] =     143.259118 [cm-1]
     freq (  155) =       4.700345 [THz] =     156.786633 [cm-1]
     freq (  156) =       6.029196 [THz] =     201.112341 [cm-1]
     freq (  157) =       7.050579 [THz] =     235.181998 [cm-1]
     freq (  158) =      10.772852 [THz] =     359.343670 [cm-1]
     freq (  159) =      12.113590 [THz] =     404.065881 [cm-1]
     freq (  160) =      13.514696 [THz] =     450.801718 [cm-1]
     freq (  161) =      16.963943 [THz] =     565.856240 [cm-1]
     freq (  162) =      19.409658 [THz] =     647.436509 [cm-1]
     freq (  163) =      21.013907 [THz] =     700.948493 [cm-1]
     freq (  164) =      23.457443 [THz] =     782.456090 [cm-1]
     freq (  165) =      26.551397 [THz] =     885.659284 [cm-1]
     freq (  166) =      28.030897 [THz] =     935.010080 [cm-1]
     freq (  167) =      32.416677 [THz] =    1081.303964 [cm-1]
     freq (  168) =      35.835318 [THz] =    1195.337549 [cm-1]
     freq (  169) =      36.935189 [THz] =    1232.025300 [cm-1]
     freq (  170) =      42.344474 [THz] =    1412.459611 [cm-1]
     freq (  171) =      47.817325 [THz] =    1595.014284 [cm-1]
     freq (  172) =      48.883737 [THz] =    1630.585953 [cm-1]
     freq (  173) =      52.995326 [THz] =    1767.733798 [cm-1]
     freq (  174) =      59.494449 [THz] =    1984.521207 [cm-1]
     freq (  175) =      62.126944 [THz] =    2072.331774 [cm-1]
     freq (  176) =      68.433197 [THz] =    2282.685740 [cm-1]
     freq (  177) =      71.177710 [THz] =    2374.232858 [cm-1]
 **************************************************************************

     Mode symmetry, C_1 (1)     point group:

     freq (   1-   1) =      -6032.6  [cm-1]   --> A               I+R
     freq (   2-   2) =      -5916.1  [cm-1]   --> A               I+R
     freq (   3-   3) =      -5483.5  [cm-1]   --> A               I+R
     freq (   4-   4) =      -4996.3  [cm-1]   --> A               I+R
     freq (   5-   5) =      -4768.2  [cm-1]   --> A               I+R
     freq (   6-   6) =      -4474.0  [cm-1]   --> A               I+R
     freq (   7-   7) =      -4041.7  [cm-1]   --> A               I+R
     freq (   8-   8) =      -3788.3  [cm-1]   --> A               I+R
     freq (   9-   9) =      -3638.8  [cm-1]   --> A               I+R
     freq (  10-  10) =      -3204.4  [cm-1]   --> A               I+R
     freq (  11-  11) =      -3144.6  [cm-1]   --> A               I+R
     freq (  12-  12) =      -2896.6  [cm-1]   --> A               I+R
     freq (  13-  13) =      -2761.4  [cm-1]   --> A               I+R
     freq (  14-  14) =      -2449.5  [cm-1]   --> A               I+R
     freq (  15-  15) =      -2352.5  [cm-1]   --> A               I+R
     freq (  16-  16) =      -2015.5  [cm-1]   --> A               I+R
     freq (  17-  17) =      -1946.2  [cm-1]   --> A               I+R
     freq (  18-  18) =      -1782.5  [cm-1]   --> A               I+R
     freq (  19-  19) =      -1657.1  [cm-1]   --> A               I+R
     freq (  20-  20) =      -1480.8  [cm-1]   --> A               I+R
     freq (  21-  21) =      -1214.4  [cm-1]   --> A               I+R
     freq (  22-  22) =      -1110.5  [cm-1]   --> A               I+R
     freq (  23-  23) =       -903.4  [cm-1]   --> A               I+R
     freq (  24-  24) =       -817.2  [cm-1]   --> A               I+R
     freq (  25-  25) =       -741.1  [cm-1]   --> A               I+R
     freq (  26-  26) =       -612.1  [cm-1]   --> A               I+R
     freq (  27-  27) =       -547.5  [cm-1]   --> A               I+R
     freq (  28-  28) =       -292.3  [cm-1]   --> A               I+R
     freq (  29-  29) =       -126.3  [cm-1]   --> A               I+R
     freq (  30-  30) =        -94.0  [cm-1]   --> A               I+R
     freq (  31-  31) =        -54.0  [cm-1]   --> A               I+R
     freq (  32-  32) =        -42.1  [cm-1]   --> A               I+R
     freq (  33-  33) =        -33.0  [cm-1]   --> A               I+R
     freq ( 145- 145) =         15.1  [cm-1]   --> A               I+R
     freq ( 146- 146) =         25.8  [cm-1]   --> A               I+R
     freq ( 147- 147) =         30.0  [cm-1]   --> A               I+R
     freq ( 148- 148) =         34.2  [cm-1]   --> A               I+R
     freq ( 149- 149) =         41.6  [cm-1]   --> A               I+R
     freq ( 150- 150) =         50.1  [cm-1]   --> A               I+R
     freq ( 151- 151) =         63.6  [cm-1]   --> A               I+R
     freq ( 152- 152) =         81.5  [cm-1]   --> A               I+R
     freq ( 153- 153) =        126.1  [cm-1]   --> A               I+R
     freq ( 154- 154) =        143.3  [cm-1]   --> A               I+R
     freq ( 155- 155) =        156.8  [cm-1]   --> A               I+R
     freq ( 156- 156) =        201.1  [cm-1]   --> A               I+R
     freq ( 157- 157) =        235.2  [cm-1]   --> A               I+R
     freq ( 158- 158) =        359.3  [cm-1]   --> A               I+R
     freq ( 159- 159) =        404.1  [cm-1]   --> A               I+R
     freq ( 160- 160) =        450.8  [cm-1]   --> A               I+R
     freq ( 161- 161) =        565.9  [cm-1]   --> A               I+R
     freq ( 162- 162) =        647.4  [cm-1]   --> A               I+R
     freq ( 163- 163) =        700.9  [cm-1]   --> A               I+R
     freq ( 164- 164) =        782.5  [cm-1]   --> A               I+R
     freq ( 165- 165) =        885.7  [cm-1]   --> A               I+R
     freq ( 166- 166) =        935.0  [cm-1]   --> A               I+R
     freq ( 167- 167) =       1081.3  [cm-1]   --> A               I+R
     freq ( 168- 168) =       1195.3  [cm-1]   --> A               I+R
     freq ( 169- 169) =       1232.0  [cm-1]   --> A               I+R
     freq ( 170- 170) =       1412.5  [cm-1]   --> A               I+R
     freq ( 171- 171) =       1595.0  [cm-1]   --> A               I+R
     freq ( 172- 172) =       1630.6  [cm-1]   --> A               I+R
     freq ( 173- 173) =       1767.7  [cm-1]   --> A               I+R
     freq ( 174- 174) =       1984.5  [cm-1]   --> A               I+R
     freq ( 175- 175) =       2072.3  [cm-1]   --> A               I+R
     freq ( 176- 176) =       2282.7  [cm-1]   --> A               I+R
     freq ( 177- 177) =       2374.2  [cm-1]   --> A               I+R

     PHONON       :   3d 0h42m CPU      7h28m WALL

     INITIALIZATION: 
     phq_setup    :     24.05s CPU      2.63s WALL (       1 calls)
     phq_init     : 106885.39s CPU  13559.14s WALL (       1 calls)

     phq_init     : 106885.39s CPU  13559.14s WALL (       1 calls)
     set_drhoc    :     98.57s CPU     98.64s WALL (       3 calls)
     init_vloc    :      4.03s CPU      3.95s WALL (       1 calls)
     init_us_1    :      0.77s CPU      0.45s WALL (       1 calls)
     init_us_2    :     98.11s CPU      8.17s WALL (     140 calls)
     newd         :     50.09s CPU      3.27s WALL (       1 calls)
     dvanqq       :  48088.13s CPU   2463.02s WALL (       1 calls)
     drho         :  58457.69s CPU  10917.48s WALL (       1 calls)
     drhous       :   5171.59s CPU    268.17s WALL (       1 calls)
     nldyntot     :    423.32s CPU     21.20s WALL (       1 calls)

     DYNAMICAL MATRIX:
     dynmat0      :    235.57s CPU    112.40s WALL (       1 calls)
     dynmat_us    :     90.42s CPU     34.15s WALL (       1 calls)
     addusdynmat  :      0.04s CPU      0.05s WALL (       1 calls)
     d2ionq       :     70.43s CPU      6.40s WALL (       1 calls)
     dynmatcc     :     74.68s CPU     71.71s WALL (       1 calls)
     phqscf       : 154673.65s CPU  13324.36s WALL (       1 calls)
     dynmatrix    :     29.26s CPU      1.83s WALL (       1 calls)

     phqscf       : 154673.65s CPU  13324.36s WALL (       1 calls)
     solve_linter : 152000.53s CPU  13041.41s WALL (      33 calls)
     sth_kernel   :  86173.03s CPU   4548.34s WALL (      38 calls)
     h_prec       :    105.18s CPU      7.23s WALL (      38 calls)
     apply_dpot_b :    892.38s CPU     45.26s WALL (       5 calls)
     ortho        :   1034.19s CPU     55.00s WALL (      38 calls)
     cgsolve      :  75288.43s CPU   3945.78s WALL (      38 calls)
     incdrhoscf   :   8366.23s CPU    460.94s WALL (      38 calls)
                                        0.00s GPU  (      38 calls)
     addusddens   :  99432.26s CPU  13169.31s WALL (     215 calls)
     dv_of_drho   :    131.46s CPU     28.59s WALL (      38 calls)
     mix_pot      :      3.67s CPU      2.46s WALL (      38 calls)
     ef_shift     :     16.03s CPU      0.99s WALL (      38 calls)
     ef_shift_wfc :     88.52s CPU      6.04s WALL (      33 calls)
     localdos     :   5317.59s CPU   1837.72s WALL (      33 calls)
     drhodv       :   2671.35s CPU    273.58s WALL (      33 calls)
     psymdvscf    :     14.72s CPU     11.35s WALL (      38 calls)
     newdq        :   4554.47s CPU   2943.54s WALL (      38 calls)
     adddvscf     :    448.24s CPU     22.76s WALL (       5 calls)
     drhodvus     :   1074.70s CPU    131.27s WALL (      33 calls)

     dvqpsi_us    :   6023.28s CPU    589.23s WALL (      33 calls)
                                        0.00s GPU  (      33 calls)
     dvqpsi_us_on :    734.59s CPU    321.51s WALL (      33 calls)

     add_vuspsi   :   2887.92s CPU    147.29s WALL (     539 calls)
     addusdbec    :    699.26s CPU     36.61s WALL (      71 calls)

     drhodvus     :   1074.70s CPU    131.27s WALL (      33 calls)

      General routines
     calbec       :   8777.49s CPU    457.81s WALL (    1362 calls)
     fft          :    913.05s CPU     59.10s WALL (    7268 calls)
     ffts         :    768.52s CPU     67.50s WALL (   16337 calls)
     fftw         :  51465.53s CPU   2734.02s WALL (  235729 calls)
     davcio       :    880.37s CPU    130.49s WALL (    6211 calls)
     write_rec    :      2.24s CPU     17.65s WALL (      71 calls)

      Additional routines
     ch_psi       :  73286.53s CPU   3826.69s WALL (     539 calls)
     last         :   8474.61s CPU    485.02s WALL (     539 calls)
     Hesh         :     72.47s CPU     17.07s WALL (     539 calls)
     ch_psi_all_k :   8401.41s CPU    459.74s WALL (     539 calls)
                                        0.00s GPU  (     539 calls)
     ch_psi_calbe :   2969.23s CPU    154.92s WALL (     539 calls)
                                        0.00s GPU  (     539 calls)
     h_psi_bgrp   :  61656.99s CPU   3127.71s WALL (     539 calls)
     h_psi        :  61656.99s CPU   3127.71s WALL (     539 calls)
     h_psi:pot    :  61482.50s CPU   3117.91s WALL (     539 calls)
     h_psi:calbec :   3040.08s CPU    157.58s WALL (     539 calls)
     s_psi_bgrp   :   6531.58s CPU    333.47s WALL (    1116 calls)
     s_psi        :   6162.59s CPU    312.25s WALL (    1116 calls)


     PHONON       :   3d 0h42m CPU      7h28m WALL


   This run was terminated on:   7:38:47   8Feb2025            

=------------------------------------------------------------------------------=
   JOB DONE.
=------------------------------------------------------------------------------=
