
     Program PWSCF v.7.2 starts on  6Nov2024 at 14:13:43 

     This program is part of the open-source Quantum ESPRESSO suite
     for quantum simulation of materials; please cite
         "P. Giannozzi et al., J. Phys.:Condens. Matter 21 395502 (2009);
         "P. Giannozzi et al., J. Phys.:Condens. Matter 29 465901 (2017);
         "P. Giannozzi et al., J. Chem. Phys. 152 154105 (2020);
          URL http://www.quantum-espresso.org", 
     in publications or presentations arising from this work. More details at
     http://www.quantum-espresso.org/quote

     Parallel version (MPI & OpenMP), running on      28 processor cores
     Number of MPI processes:                 1
     Threads/MPI process:                    28

     MPI processes distributed on     1 nodes
     115415 MiB available memory on the printing compute node when the environment starts

     Reading input from FFPt.in
Warning: card &CELL ignored
Warning: card / ignored
Warning: card &FCP ignored
Warning: card / ignored
Warning: card &RISM ignored
Warning: card / ignored

     Current dimensions of program PWSCF are:
     Max number of different atomic species (ntypx) = 10
     Max number of k-points (npk) =  40000
     Max angular momentum in pseudopotentials (lmaxx) =  4
     file Pt.pbe-n-rrkjus_psl.1.0.0.UPF: wavefunction(s)  6S renormalized

     gamma-point specific algorithms are used

     Subspace diagonalization in iterative solution of the eigenvalue problem:
     a serial algorithm will be used


     G-vector sticks info
     --------------------
     sticks:   dense  smooth     PW     G-vecs:    dense   smooth      PW
     Sum        8443    4243   1057              1389277   492949   61647

     Using Slab Decomposition



     bravais-lattice index     =            0
     lattice parameter (alat)  =      20.9522  a.u.
     unit-cell volume          =   17620.7087 (a.u.)^3
     number of atoms/cell      =           59
     number of atomic types    =            4
     number of electrons       =       516.00
     number of Kohn-Sham states=          310
     kinetic-energy cutoff     =      35.0000  Ry
     charge density cutoff     =     279.3000  Ry
     scf convergence threshold =      1.0E-04
     mixing beta               =       0.5000
     number of iterations used =            8  plain     mixing
     energy convergence thresh.=      1.0E-04
     force convergence thresh. =      1.0E-03
     Exchange-correlation= PBE
                           (   1   4   3   4   0   0   0)
     nstep                     =          500


     celldm(1)=  20.952214  celldm(2)=   0.000000  celldm(3)=   0.000000
     celldm(4)=   0.000000  celldm(5)=   0.000000  celldm(6)=   0.000000

     crystal axes: (cart. coord. in units of alat)
               a(1) = (   1.000000   0.000000   0.000000 )  
               a(2) = (   0.500000   0.866025   0.000000 )  
               a(3) = (   0.000000   0.000000   2.212092 )  

     reciprocal axes: (cart. coord. in units 2 pi/alat)
               b(1) = (  1.000000 -0.577351  0.000000 )  
               b(2) = (  0.000000  1.154701  0.000000 )  
               b(3) = (  0.000000  0.000000  0.452061 )  


     PseudoPot. # 1 for Pt read from file:
     /mnt/research/scbgroup/christina/bio-oil-ECH/pseudo/Pt.pbe-n-rrkjus_psl.1.0.0.UPF
     MD5 check sum: 6bc887cfe28d63a5fc1f72d35a7d3ef7
     Pseudo is Ultrasoft + core correction, Zval = 10.0
     Generated using &quot;atomic&quot; code by A. Dal Corso  v.6.3
     Using radial grid of 1277 points,  6 beta functions with: 
                l(1) =   0
                l(2) =   0
                l(3) =   1
                l(4) =   1
                l(5) =   2
                l(6) =   2
     Q(r) pseudized with 0 coefficients 


     PseudoPot. # 2 for O  read from file:
     /mnt/research/scbgroup/christina/bio-oil-ECH/pseudo/O.pbe-n-rrkjus_psl.1.0.0.UPF
     MD5 check sum: 91400c9766925bcf19f520983a725ff0
     Pseudo is Ultrasoft + core correction, Zval =  6.0
     Generated using &quot;atomic&quot; code by A. Dal Corso  v.6.3MaX
     Using radial grid of 1095 points,  4 beta functions with: 
                l(1) =   0
                l(2) =   0
                l(3) =   1
                l(4) =   1
     Q(r) pseudized with 0 coefficients 


     PseudoPot. # 3 for C  read from file:
     /mnt/research/scbgroup/christina/bio-oil-ECH/pseudo/C.pbe-n-rrkjus_psl.1.0.0.UPF
     MD5 check sum: 1fdd950c42eb37d8afe3dd2f8d12311e
     Pseudo is Ultrasoft + core correction, Zval =  4.0
     Generated using &quot;atomic&quot; code by A. Dal Corso  v.6.3MaX
     Using radial grid of 1073 points,  4 beta functions with: 
                l(1) =   0
                l(2) =   0
                l(3) =   1
                l(4) =   1
     Q(r) pseudized with 0 coefficients 


     PseudoPot. # 4 for H  read from file:
     /mnt/research/scbgroup/christina/bio-oil-ECH/pseudo/H.pbe-rrkjus_psl.1.0.0.UPF
     MD5 check sum: 3f4114867bd07edc7f1424d066fc1888
     Pseudo is Ultrasoft, Zval =  1.0
     Generated using &quot;atomic&quot; code by A. Dal Corso  v.6.3MaX
     Using radial grid of  929 points,  2 beta functions with: 
                l(1) =   0
                l(2) =   0
     Q(r) pseudized with 0 coefficients 


     atomic species   valence    mass     pseudopotential
        Pt            10.00   195.08400     Pt( 1.00)
        O              6.00    15.99900     O ( 1.00)
        C              4.00    12.01100     C ( 1.00)
        H              1.00     1.00800     H ( 1.00)

     No symmetry found



   Cartesian axes

     site n.     atom                  positions (alat units)
         1           Pt  tau(   1) = (   0.1249960   0.0721665   0.8952815  )
         2           Pt  tau(   2) = (   0.3749933   0.0721412   0.8952490  )
         3           Pt  tau(   3) = (   0.6250067   0.0721412   0.8952490  )
         4           Pt  tau(   4) = (   0.8750040   0.0721665   0.8952815  )
         5           Pt  tau(   5) = (   0.2499728   0.2886831   0.8952490  )
         6           Pt  tau(   6) = (   0.5000000   0.2886751   0.8952053  )
         7           Pt  tau(   7) = (   0.7500273   0.2886831   0.8952490  )
         8           Pt  tau(   8) = (   1.0000000   0.2886858   0.8952812  )
         9           Pt  tau(   9) = (   0.3749795   0.5052011   0.8952490  )
        10           Pt  tau(  10) = (   0.6250206   0.5052011   0.8952490  )
        11           Pt  tau(  11) = (   0.8750182   0.5051920   0.8952797  )
        12           Pt  tau(  12) = (   1.1249818   0.5051920   0.8952797  )
        13           Pt  tau(  13) = (   0.5000000   0.7216924   0.8952815  )
        14           Pt  tau(  14) = (   0.7500093   0.7216825   0.8952812  )
        15           Pt  tau(  15) = (   1.0000000   0.7216669   0.8952797  )
        16           Pt  tau(  16) = (   1.2499908   0.7216825   0.8952812  )
        17           Pt  tau(  17) = (   0.0000000   0.1443292   1.1060537  )
        18           Pt  tau(  18) = (   0.2499624   0.1443158   1.1060464  )
        19           Pt  tau(  19) = (   0.5000000   0.1443073   1.1060355  )
        20           Pt  tau(  20) = (   0.7500377   0.1443158   1.1060464  )
        21           Pt  tau(  21) = (   0.1249695   0.3608582   1.1060565  )
        22           Pt  tau(  22) = (   0.3749738   0.3608591   1.1060355  )
        23           Pt  tau(  23) = (   0.6250262   0.3608591   1.1060355  )
        24           Pt  tau(  24) = (   0.8750305   0.3608582   1.1060565  )
        25           Pt  tau(  25) = (   0.2499725   0.5773695   1.1060565  )
        26           Pt  tau(  26) = (   0.5000000   0.5773937   1.1060464  )
        27           Pt  tau(  27) = (   0.7500276   0.5773695   1.1060565  )
        28           Pt  tau(  28) = (   1.0000000   0.5773503   1.1060570  )
        29           Pt  tau(  29) = (   0.3750073   0.7938608   1.1060537  )
        30           Pt  tau(  30) = (   0.6249927   0.7938608   1.1060537  )
        31           Pt  tau(  31) = (   0.8749971   0.7938231   1.1060565  )
        32           Pt  tau(  32) = (   1.1250029   0.7938231   1.1060565  )
        33           Pt  tau(  33) = (   0.0000000   0.0000000   1.3168043  )
        34           Pt  tau(  34) = (   0.2499883  -0.0000294   1.3168199  )
        35           Pt  tau(  35) = (   0.5000000  -0.0000502   1.3168301  )
        36           Pt  tau(  36) = (   0.7500118  -0.0000294   1.3168199  )
        37           Pt  tau(  37) = (   0.1249686   0.2165109   1.3168199  )
        38           Pt  tau(  38) = (   0.3749651   0.2164862   1.3168341  )
        39           Pt  tau(  39) = (   0.6250350   0.2164862   1.3168341  )
        40           Pt  tau(  40) = (   0.8750314   0.2165109   1.3168199  )
        41           Pt  tau(  41) = (   0.2499566   0.4330378   1.3168301  )
        42           Pt  tau(  42) = (   0.5000000   0.4330531   1.3168341  )
        43           Pt  tau(  43) = (   0.7500435   0.4330378   1.3168301  )
        44           Pt  tau(  44) = (   1.0000000   0.4330325   1.3168222  )
        45           Pt  tau(  45) = (   0.3749804   0.6495440   1.3168199  )
        46           Pt  tau(  46) = (   0.6250196   0.6495440   1.3168199  )
        47           Pt  tau(  47) = (   0.8750171   0.6495092   1.3168222  )
        48           Pt  tau(  48) = (   1.1249829   0.6495092   1.3168222  )
        49           O   tau(  49) = (   0.4148841   0.3427303   1.4972185  )
        50           O   tau(  50) = (   0.6428653   0.1173649   1.4972185  )
        51           C   tau(  51) = (   0.4611523   0.2292473   1.4972185  )
        52           C   tau(  52) = (   0.3700375   0.1450454   1.4972095  )
        53           C   tau(  53) = (   0.2607687   0.2110379   1.4972095  )
        54           C   tau(  54) = (   0.2928995   0.3308557   1.4972004  )
        55           C   tau(  55) = (   0.5888718   0.2164792   1.4972004  )
        56           H   tau(  56) = (   0.3805457   0.0481292   1.4972004  )
        57           H   tau(  57) = (   0.1699704   0.1756996   1.4972095  )
        58           H   tau(  58) = (   0.2424468   0.4141978   1.4972004  )
        59           H   tau(  59) = (   0.6419384   0.3006507   1.4971824  )

     --------------------------------------------
     DFT-D3 Dispersion Correction (3-body terms):
     --------------------------------------------
       Reference C6 values for interpolation: 

         atom   Coordination number   C6
         H          0.912             6.05
         H          0.000            15.18
         C          0.000            98.23
         C          0.987            86.49
         C          1.998            58.72
         C          2.999            51.56
         C          3.984            36.41
         O          0.000            31.01
         O          0.993            25.63
         O          1.989            20.74
         Pt         0.000           782.29
         Pt         1.919           692.72
         Pt         6.667           673.75

       Values used:

         atom   Coordination number  R0_AB[au]  C6      C8
         Pt         6.872            3.168    673.75  70061.90
         Pt         6.870            3.168    673.75  70061.90
         Pt         6.870            3.168    673.75  70061.90
         Pt         6.872            3.168    673.75  70061.90
         Pt         6.870            3.168    673.75  70061.90
         Pt         6.867            3.168    673.75  70061.90
         Pt         6.870            3.168    673.75  70061.90
         Pt         6.873            3.168    673.75  70061.90
         Pt         6.870            3.168    673.75  70061.90
         Pt         6.870            3.168    673.75  70061.90
         Pt         6.873            3.168    673.75  70061.90
         Pt         6.873            3.168    673.75  70061.90
         Pt         6.872            3.168    673.75  70061.90
         Pt         6.873            3.168    673.75  70061.90
         Pt         6.873            3.168    673.75  70061.90
         Pt         6.873            3.168    673.75  70061.90
         Pt         9.054            3.168    673.75  70061.90
         Pt         9.052            3.168    673.75  70061.90
         Pt         9.049            3.168    673.75  70061.90
         Pt         9.051            3.168    673.75  70061.90
         Pt         9.053            3.168    673.75  70061.90
         Pt         9.049            3.168    673.75  70061.90
         Pt         9.047            3.168    673.75  70061.90
         Pt         9.052            3.168    673.75  70061.90
         Pt         9.052            3.168    673.75  70061.90
         Pt         9.050            3.168    673.75  70061.90
         Pt         9.052            3.168    673.75  70061.90
         Pt         9.054            3.168    673.75  70061.90
         Pt         9.053            3.168    673.75  70061.90
         Pt         9.053            3.168    673.75  70061.90
         Pt         9.053            3.168    673.75  70061.90
         Pt         9.052            3.168    673.75  70061.90
         Pt         6.878            3.168    673.75  70061.90
         Pt         7.047            3.168    673.75  70061.90
         Pt         7.076            3.168    673.75  70061.90
         Pt         7.001            3.168    673.75  70061.90
         Pt         7.621            3.168    673.75  70061.90
         Pt        10.138            3.168    673.75  70061.90
         Pt         8.760            3.168    673.75  70061.90
         Pt         6.886            3.168    673.75  70061.90
         Pt         8.008            3.168    673.75  70061.90
         Pt         7.323            3.168    673.75  70061.90
         Pt         6.889            3.168    673.75  70061.90
         Pt         6.881            3.168    673.75  70061.90
         Pt         6.877            3.168    673.75  70061.90
         Pt         6.874            3.168    673.75  70061.90
         Pt         6.877            3.168    673.75  70061.90
         Pt         6.878            3.168    673.75  70061.90
         O          2.813            2.345     20.74    418.58
         O          1.790            2.345     21.13    426.32
         C          4.590            2.750     36.42   1053.21
         C          4.378            2.750     36.43   1053.49
         C          4.485            2.750     36.42   1053.29
         C          4.627            2.750     36.42   1053.19
         C          4.130            2.750     36.50   1055.64
         H          1.063            2.062      6.13     74.15
         H          1.203            2.062      6.08     73.53
         H          1.331            2.062      6.06     73.32
         H          1.120            2.062      6.11     73.82

         Molecular C6 ( Ry / a.u.^6 ) =   1674814.92


     number of k points=     1  Methfessel-Paxton smearing, width (Ry)=  0.1000
                       cart. coord. in units 2pi/alat
        k(    1) = (   0.0000000   0.0000000   0.0000000), wk =   2.0000000

     Dense  grid:   694639 G-vectors     FFT dimensions: ( 120, 120, 250)

     Smooth grid:   246475 G-vectors     FFT dimensions: (  80,  80, 180)

     Estimated max dynamical RAM per process >       4.56 GB

     Initial potential from superposition of free atoms

     starting charge     515.9916, renormalised to     516.0000

     negative rho (up, down):  9.808E-03 0.000E+00
     Starting wfcs are  464 randomized atomic wfcs

     total cpu time spent up to now is       31.9 secs

     Self-consistent Calculation

     iteration #  1     ecut=    35.00 Ry     beta= 0.50
     Davidson diagonalization with overlap
     ethr =  1.00E-02,  avg # of iterations =  2.0

     negative rho (up, down):  5.492E-03 0.000E+00

     total cpu time spent up to now is       70.8 secs

     total energy              =   -3266.08017160 Ry
     estimated scf accuracy    <       5.67930394 Ry

     iteration #  2     ecut=    35.00 Ry     beta= 0.50
     Davidson diagonalization with overlap
     ethr =  1.10E-03,  avg # of iterations = 10.0

     negative rho (up, down):  2.163E-02 0.000E+00

     total cpu time spent up to now is      129.5 secs

     total energy              =   -3259.52871900 Ry
     estimated scf accuracy    <     124.01533854 Ry

     iteration #  3     ecut=    35.00 Ry     beta= 0.50
     Davidson diagonalization with overlap
     ethr =  1.10E-03,  avg # of iterations = 11.0

     negative rho (up, down):  1.711E-02 0.000E+00

     total cpu time spent up to now is      174.0 secs

     total energy              =   -3263.57909140 Ry
     estimated scf accuracy    <     204.10282616 Ry

     iteration #  4     ecut=    35.00 Ry     beta= 0.50
     Davidson diagonalization with overlap
     ethr =  1.10E-03,  avg # of iterations =  4.0

     negative rho (up, down):  1.133E-02 0.000E+00

     total cpu time spent up to now is      212.2 secs

     total energy              =   -3268.19452656 Ry
     estimated scf accuracy    <       9.27517956 Ry

     iteration #  5     ecut=    35.00 Ry     beta= 0.50
     Davidson diagonalization with overlap
     ethr =  1.10E-03,  avg # of iterations =  2.0

     negative rho (up, down):  1.322E-02 0.000E+00

     total cpu time spent up to now is      242.8 secs

     total energy              =   -3268.37035292 Ry
     estimated scf accuracy    <       7.77140109 Ry

     iteration #  6     ecut=    35.00 Ry     beta= 0.50
     Davidson diagonalization with overlap
     ethr =  1.10E-03,  avg # of iterations =  1.0

     negative rho (up, down):  1.152E-02 0.000E+00

     total cpu time spent up to now is      278.6 secs

     total energy              =   -3268.74083807 Ry
     estimated scf accuracy    <       5.41413775 Ry

     iteration #  7     ecut=    35.00 Ry     beta= 0.50
     Davidson diagonalization with overlap
     ethr =  1.05E-03,  avg # of iterations =  1.0

     negative rho (up, down):  1.117E-02 0.000E+00

     total cpu time spent up to now is      310.0 secs

     total energy              =   -3268.97423962 Ry
     estimated scf accuracy    <       1.02240262 Ry

     iteration #  8     ecut=    35.00 Ry     beta= 0.50
     Davidson diagonalization with overlap
     ethr =  1.98E-04,  avg # of iterations =  7.0

     negative rho (up, down):  1.147E-02 0.000E+00

     total cpu time spent up to now is      343.7 secs

     total energy              =   -3269.01720242 Ry
     estimated scf accuracy    <       0.82640741 Ry

     iteration #  9     ecut=    35.00 Ry     beta= 0.50
     Davidson diagonalization with overlap
     ethr =  1.60E-04,  avg # of iterations =  2.0

     negative rho (up, down):  1.083E-02 0.000E+00

     total cpu time spent up to now is      376.4 secs

     total energy              =   -3269.04971547 Ry
     estimated scf accuracy    <       0.76008584 Ry

     iteration # 10     ecut=    35.00 Ry     beta= 0.50
     Davidson diagonalization with overlap
     ethr =  1.47E-04,  avg # of iterations =  1.0

     negative rho (up, down):  1.041E-02 0.000E+00

     total cpu time spent up to now is      412.7 secs

     total energy              =   -3269.07794124 Ry
     estimated scf accuracy    <       0.10228194 Ry

     iteration # 11     ecut=    35.00 Ry     beta= 0.50
     Davidson diagonalization with overlap
     ethr =  1.98E-05,  avg # of iterations = 19.0

     negative rho (up, down):  9.562E-03 0.000E+00

     total cpu time spent up to now is      449.1 secs

     total energy              =   -3269.08255525 Ry
     estimated scf accuracy    <       0.06992533 Ry

     iteration # 12     ecut=    35.00 Ry     beta= 0.50
     Davidson diagonalization with overlap
     ethr =  1.36E-05,  avg # of iterations =  2.0

     negative rho (up, down):  9.686E-03 0.000E+00

     total cpu time spent up to now is      479.1 secs

     total energy              =   -3269.08190933 Ry
     estimated scf accuracy    <       0.12626435 Ry

     iteration # 13     ecut=    35.00 Ry     beta= 0.50
     Davidson diagonalization with overlap
     ethr =  1.36E-05,  avg # of iterations =  1.0

     negative rho (up, down):  9.720E-03 0.000E+00

     total cpu time spent up to now is      514.1 secs

     total energy              =   -3269.08675265 Ry
     estimated scf accuracy    <       0.07404086 Ry

     iteration # 14     ecut=    35.00 Ry     beta= 0.50
     Davidson diagonalization with overlap
     ethr =  1.36E-05,  avg # of iterations =  1.0

     negative rho (up, down):  9.595E-03 0.000E+00

     total cpu time spent up to now is      544.5 secs

     total energy              =   -3269.08705649 Ry
     estimated scf accuracy    <       0.13241239 Ry

     iteration # 15     ecut=    35.00 Ry     beta= 0.50
     Davidson diagonalization with overlap
     ethr =  1.36E-05,  avg # of iterations =  1.0

     negative rho (up, down):  9.481E-03 0.000E+00

     total cpu time spent up to now is      577.2 secs

     total energy              =   -3269.08992043 Ry
     estimated scf accuracy    <       0.03084231 Ry

     iteration # 16     ecut=    35.00 Ry     beta= 0.50
     Davidson diagonalization with overlap
     ethr =  5.98E-06,  avg # of iterations =  1.0

     negative rho (up, down):  9.456E-03 0.000E+00

     total cpu time spent up to now is      605.4 secs

     total energy              =   -3269.09123394 Ry
     estimated scf accuracy    <       0.00577250 Ry

     iteration # 17     ecut=    35.00 Ry     beta= 0.50
     Davidson diagonalization with overlap
     ethr =  1.12E-06,  avg # of iterations =  2.0

     negative rho (up, down):  9.459E-03 0.000E+00

     total cpu time spent up to now is      639.3 secs

     total energy              =   -3269.09156863 Ry
     estimated scf accuracy    <       0.00681240 Ry

     iteration # 18     ecut=    35.00 Ry     beta= 0.50
     Davidson diagonalization with overlap
     ethr =  1.12E-06,  avg # of iterations =  1.0

     negative rho (up, down):  9.469E-03 0.000E+00

     total cpu time spent up to now is      668.9 secs

     total energy              =   -3269.09172768 Ry
     estimated scf accuracy    <       0.00428225 Ry

     iteration # 19     ecut=    35.00 Ry     beta= 0.50
     Davidson diagonalization with overlap
     ethr =  8.30E-07,  avg # of iterations =  1.0

     negative rho (up, down):  9.464E-03 0.000E+00

     total cpu time spent up to now is      704.7 secs

     total energy              =   -3269.09189853 Ry
     estimated scf accuracy    <       0.00277681 Ry

     iteration # 20     ecut=    35.00 Ry     beta= 0.50
     Davidson diagonalization with overlap
     ethr =  5.38E-07,  avg # of iterations =  1.0

     negative rho (up, down):  9.469E-03 0.000E+00

     total cpu time spent up to now is      736.1 secs

     total energy              =   -3269.09200922 Ry
     estimated scf accuracy    <       0.00132257 Ry

     iteration # 21     ecut=    35.00 Ry     beta= 0.50
     Davidson diagonalization with overlap
     ethr =  2.56E-07,  avg # of iterations =  1.0

     negative rho (up, down):  9.478E-03 0.000E+00

     total cpu time spent up to now is      771.5 secs

     total energy              =   -3269.09207994 Ry
     estimated scf accuracy    <       0.00072731 Ry

     iteration # 22     ecut=    35.00 Ry     beta= 0.50
     Davidson diagonalization with overlap
     ethr =  1.41E-07,  avg # of iterations =  2.0

     negative rho (up, down):  9.477E-03 0.000E+00

     total cpu time spent up to now is      800.6 secs

     total energy              =   -3269.09210927 Ry
     estimated scf accuracy    <       0.00035643 Ry

     iteration # 23     ecut=    35.00 Ry     beta= 0.50
     Davidson diagonalization with overlap
     ethr =  6.91E-08,  avg # of iterations =  2.0

     negative rho (up, down):  9.479E-03 0.000E+00

     total cpu time spent up to now is      842.1 secs

     total energy              =   -3269.09212078 Ry
     estimated scf accuracy    <       0.00039618 Ry

     iteration # 24     ecut=    35.00 Ry     beta= 0.50
     Davidson diagonalization with overlap
     ethr =  6.91E-08,  avg # of iterations =  1.0

     negative rho (up, down):  9.485E-03 0.000E+00

     total cpu time spent up to now is      877.9 secs

     total energy              =   -3269.09212656 Ry
     estimated scf accuracy    <       0.00068230 Ry

     iteration # 25     ecut=    35.00 Ry     beta= 0.50
     Davidson diagonalization with overlap
     ethr =  6.91E-08,  avg # of iterations =  1.0

     negative rho (up, down):  9.487E-03 0.000E+00

     total cpu time spent up to now is      909.7 secs

     total energy              =   -3269.09213621 Ry
     estimated scf accuracy    <       0.00039096 Ry

     iteration # 26     ecut=    35.00 Ry     beta= 0.50
     Davidson diagonalization with overlap
     ethr =  6.91E-08,  avg # of iterations =  1.0

     negative rho (up, down):  9.503E-03 0.000E+00

     total cpu time spent up to now is      946.1 secs

     End of self-consistent calculation

          k = 0.0000 0.0000 0.0000 ( 30824 PWs)   bands (ev):

   -24.0160 -20.8621 -16.3978 -15.0530 -11.7560 -10.8977  -9.7243  -8.6558
    -8.3678  -7.6214  -7.3245  -6.3786  -6.2415  -6.1058  -6.0225  -5.9127
    -5.9032  -5.8758  -5.8495  -5.7943  -5.6639  -5.5987  -5.3690  -5.1991
    -5.1357  -5.0855  -5.0798  -4.9977  -4.8899  -4.8316  -4.7771  -4.6337
    -4.6156  -4.6023  -4.5670  -4.5119  -4.4838  -4.4519  -4.4055  -4.3576
    -4.3519  -4.2890  -4.2342  -4.2071  -4.1907  -4.1615  -4.1431  -4.1336
    -4.1221  -4.1105  -4.0434  -4.0272  -4.0041  -3.9921  -3.9767  -3.9704
    -3.9679  -3.9598  -3.9539  -3.9290  -3.9145  -3.7526  -3.5066  -3.5060
    -3.4968  -3.4881  -3.4866  -3.4540  -3.3360  -3.3194  -3.3062  -3.2724
    -3.2688  -3.2446  -3.1677  -3.1464  -3.1306  -3.1217  -3.1048  -3.0951
    -2.8782  -2.7702  -2.7598  -2.7424  -2.7363  -2.7318  -2.7219  -2.7189
    -2.7062  -2.7028  -2.6993  -2.6769  -2.6725  -2.6681  -2.6595  -2.6559
    -2.6506  -2.6378  -2.6115  -2.5929  -2.5543  -2.5333  -2.5010  -2.4381
    -2.4196  -2.3258  -2.3032  -2.2794  -2.2608  -2.2529  -2.2418  -2.1072
    -2.0990  -2.0845  -2.0252  -1.9960  -1.9643  -1.9149  -1.9098  -1.8941
    -1.8913  -1.8567  -1.8423  -1.8335  -1.8271  -1.8196  -1.8104  -1.7830
    -1.7799  -1.7535  -1.7202  -1.7049  -1.6785  -1.6359  -1.6299  -1.6248
    -1.5996  -1.5873  -1.5613  -1.5470  -1.5390  -1.5269  -1.5176  -1.5157
    -1.5086  -1.4987  -1.4878  -1.4855  -1.4693  -1.4606  -1.4598  -1.4522
    -1.4284  -1.4238  -1.4152  -1.3769  -1.3530  -1.3129  -1.3031  -1.2879
    -1.1807  -1.1377  -1.1155  -1.1071  -1.0981  -1.0785  -1.0707  -1.0670
    -1.0437  -0.9337  -0.8868  -0.8163  -0.7446  -0.6638  -0.6519  -0.6291
    -0.6209  -0.6125  -0.6072  -0.5809  -0.5407  -0.5374  -0.5071  -0.5011
    -0.4736  -0.4482  -0.4412  -0.4206  -0.3570  -0.3337  -0.2630  -0.2419
    -0.2369  -0.2167  -0.2106  -0.2016  -0.1887  -0.1858  -0.1607  -0.1350
    -0.0949  -0.0930  -0.0774  -0.0767  -0.0519  -0.0376   0.0006   0.0114
     0.0170   0.0555   0.0602   0.0659   0.0816   0.0863   0.0884   0.1288
     0.2130   0.3925   0.4180   0.4314   0.4517   0.4616   0.4724   0.4921
     0.5173   0.5415   0.5504   0.5547   0.5645   0.6107   0.6464   0.6561
     0.6672   0.6706   0.7693   0.8272   1.0043   1.0419   1.0656   1.0735
     1.0932   1.1060   1.1108   1.1435   1.1546   1.1589   1.1854   1.2107
     1.2290   1.2433   1.2781   1.2921   1.2967   1.3073   1.3135   1.3153
     1.4258   1.4572   1.5719   1.5771   1.5894   1.6099   1.6280   1.6405
     1.6457   1.6469   1.6560   1.8488   1.8783   1.8986   1.9973   1.9976
     1.9981   2.2444   2.4096   2.4855   2.5858   2.8344   2.8695   2.9486
     3.0019   3.2092   3.3125   3.5543   3.5741   3.6047   3.6197   3.6670
     3.6800   3.7866   4.0702   4.1665   4.1982   4.2118   4.2273   4.2666
     4.2954   4.3505   4.4241   4.4962   4.6217   4.6985   4.9420   5.7052
     5.7776   5.8215   5.8665   5.8979   5.9947   6.0654

     the Fermi energy is     1.5489 ev

!    total energy              =   -3269.09211242 Ry
     estimated scf accuracy    <       0.00004972 Ry
     smearing contrib. (-TS)   =      -0.07760835 Ry
     internal energy E=F+TS    =   -3269.01450407 Ry

     The total energy is F=E-TS. E is the sum of the following terms:
     one-electron contribution =  -32086.29038797 Ry
     hartree contribution      =   16359.73561205 Ry
     xc contribution           =   -1185.20159825 Ry
     ewald contribution        =   13644.40994069 Ry
     DFT-D3 Dispersion         =      -1.66807058 Ry

     convergence has been achieved in  26 iterations

     negative rho (up, down):  9.503E-03 0.000E+00

     Forces acting on atoms (cartesian axes, Ry/au):

     atom    1 type  1   force =    -0.00031254   -0.00153029   -0.00212615
     atom    2 type  1   force =    -0.00037220   -0.00094722   -0.00120189
     atom    3 type  1   force =     0.00043554    0.00028275   -0.00033147
     atom    4 type  1   force =     0.00116216   -0.00092944   -0.00375867
     atom    5 type  1   force =     0.00061590    0.00038710    0.00036612
     atom    6 type  1   force =     0.00042575    0.00029124   -0.00122273
     atom    7 type  1   force =    -0.00075618   -0.00066373   -0.00027207
     atom    8 type  1   force =    -0.00037892   -0.00117260   -0.00216479
     atom    9 type  1   force =     0.00085195    0.00146345   -0.00121118
     atom   10 type  1   force =    -0.00108031    0.00079232   -0.00073701
     atom   11 type  1   force =    -0.00046353    0.00109818   -0.00021955
     atom   12 type  1   force =     0.00086496    0.00163965   -0.00073884
     atom   13 type  1   force =    -0.00088661   -0.00062081    0.00096759
     atom   14 type  1   force =    -0.00058902    0.00033502   -0.00048556
     atom   15 type  1   force =     0.00039846    0.00002061   -0.00006713
     atom   16 type  1   force =     0.00081416    0.00002584   -0.00189828
     atom   17 type  1   force =     0.00219650   -0.00035833    0.00460420
     atom   18 type  1   force =     0.00111942    0.00050051   -0.00944051
     atom   19 type  1   force =    -0.00215165    0.00027383   -0.00959906
     atom   20 type  1   force =     0.00003753   -0.00206406   -0.00185221
     atom   21 type  1   force =    -0.00160303    0.00048695   -0.00593714
     atom   22 type  1   force =     0.00031842   -0.00560004   -0.00416953
     atom   23 type  1   force =    -0.00157872   -0.00421594    0.00599021
     atom   24 type  1   force =    -0.00102991   -0.00005216    0.00129655
     atom   25 type  1   force =     0.00100424   -0.00182656    0.00691562
     atom   26 type  1   force =     0.00005457   -0.00181294    0.00406029
     atom   27 type  1   force =    -0.00087235    0.00141173   -0.00007749
     atom   28 type  1   force =     0.00047768    0.00071721    0.00106298
     atom   29 type  1   force =    -0.00302850    0.00108311    0.00402060
     atom   30 type  1   force =    -0.00025229    0.00029293    0.00066348
     atom   31 type  1   force =     0.00173574    0.00112710    0.00043572
     atom   32 type  1   force =     0.00059943    0.00065776    0.00012769
     atom   33 type  1   force =    -0.00082655   -0.00516432   -0.00212453
     atom   34 type  1   force =    -0.02038163   -0.04203381   -0.02967763
     atom   35 type  1   force =     0.00592260   -0.04785575   -0.03429747
     atom   36 type  1   force =     0.01838439   -0.02024822   -0.01409051
     atom   37 type  1   force =    -0.03450025   -0.00910019   -0.02697781
     atom   38 type  1   force =     0.00587947   -0.07190292   -0.17289259
     atom   39 type  1   force =     0.03059708    0.02065279   -0.12299890
     atom   40 type  1   force =     0.01001745    0.00208208   -0.00595407
     atom   41 type  1   force =    -0.01552293    0.02246274   -0.02557576
     atom   42 type  1   force =     0.01677089    0.04947879   -0.04082412
     atom   43 type  1   force =     0.01036515    0.01198644   -0.00327868
     atom   44 type  1   force =    -0.00885444    0.00454116   -0.00064764
     atom   45 type  1   force =     0.00198690    0.00575975   -0.00293153
     atom   46 type  1   force =     0.00042600    0.00271638   -0.00133436
     atom   47 type  1   force =    -0.00034201   -0.00166642    0.00140967
     atom   48 type  1   force =    -0.00208657    0.00115763   -0.00187220
     atom   49 type  2   force =     0.03853893    0.07573614    0.14021764
     atom   50 type  2   force =     0.03464151   -0.10731240    0.07364120
     atom   51 type  3   force =     0.03621795    0.00143089    0.02957899
     atom   52 type  3   force =    -0.02857291   -0.05073066    0.03995776
     atom   53 type  3   force =    -0.03788111   -0.00682961    0.03728195
     atom   54 type  3   force =    -0.03008842    0.06478279    0.00545106
     atom   55 type  3   force =     0.01016423    0.08276128    0.02864923
     atom   56 type  4   force =     0.00225623   -0.01128890    0.02621990
     atom   57 type  4   force =    -0.02238548   -0.01074170    0.02962312
     atom   58 type  4   force =    -0.02091213    0.02644889    0.04441680
     atom   59 type  4   force =     0.00242903    0.02178396    0.04603071
     The non-local contrib.  to forces
     atom    1 type  1   force =    -0.00010090   -0.00039452   -0.00038592
     atom    2 type  1   force =     0.00040130   -0.00067285   -0.00296518
     atom    3 type  1   force =    -0.00136119    0.00104725   -0.00185140
     atom    4 type  1   force =     0.00057123   -0.00115825    0.00007278
     atom    5 type  1   force =     0.00027438   -0.00032564   -0.00050464
     atom    6 type  1   force =     0.00016875   -0.00034463   -0.00228767
     atom    7 type  1   force =    -0.00068951    0.00070537    0.00114834
     atom    8 type  1   force =     0.00019727    0.00083386   -0.00015276
     atom    9 type  1   force =     0.00071626    0.00096698   -0.00322744
     atom   10 type  1   force =     0.00008672    0.00116870   -0.00067246
     atom   11 type  1   force =    -0.00120179    0.00017402    0.00362458
     atom   12 type  1   force =    -0.00023947    0.00042353    0.00148060
     atom   13 type  1   force =     0.00060818    0.00049366    0.00450863
     atom   14 type  1   force =    -0.00028459   -0.00006832    0.00248999
     atom   15 type  1   force =     0.00003778    0.00067250    0.00174494
     atom   16 type  1   force =    -0.00019399    0.00087674    0.00112159
     atom   17 type  1   force =     0.00078310    0.00077609    0.00638050
     atom   18 type  1   force =    -0.00168210   -0.00189968   -0.00231862
     atom   19 type  1   force =    -0.00169632    0.00047375   -0.00001903
     atom   20 type  1   force =     0.00402350   -0.00297171   -0.00503195
     atom   21 type  1   force =    -0.00059760   -0.00047550   -0.00025437
     atom   22 type  1   force =     0.00149901    0.00448470   -0.00578834
     atom   23 type  1   force =    -0.00224597    0.00224958    0.00017670
     atom   24 type  1   force =     0.00023630   -0.00150944    0.00537928
     atom   25 type  1   force =     0.00084840    0.00323060    0.00348958
     atom   26 type  1   force =    -0.00001857   -0.00143905    0.00542027
     atom   27 type  1   force =    -0.00132852    0.00012550    0.00453675
     atom   28 type  1   force =     0.00090911    0.00093201    0.00380691
     atom   29 type  1   force =    -0.00223912   -0.00008179    0.00626212
     atom   30 type  1   force =     0.00131436    0.00131617    0.00611202
     atom   31 type  1   force =     0.00085465   -0.00006623    0.00385680
     atom   32 type  1   force =    -0.00090355    0.00043822    0.00573740
     atom   33 type  1   force =     0.00069038   -0.00264341   -0.00564870
     atom   34 type  1   force =     0.02583991    0.03989806    0.03410660
     atom   35 type  1   force =    -0.00374920    0.04967456    0.05572301
     atom   36 type  1   force =    -0.02624851    0.03080836    0.04716377
     atom   37 type  1   force =     0.08358344    0.00035411    0.08789951
     atom   38 type  1   force =    -0.01403424    0.00632843    0.18890810
     atom   39 type  1   force =    -0.03492862   -0.03617877    0.11864476
     atom   40 type  1   force =    -0.01079418   -0.00441963    0.00530176
     atom   41 type  1   force =     0.02254012   -0.06207623    0.09154951
     atom   42 type  1   force =    -0.03652343   -0.05658868    0.08063703
     atom   43 type  1   force =    -0.00488309   -0.00560768    0.00090648
     atom   44 type  1   force =     0.00148911    0.00209496   -0.00001196
     atom   45 type  1   force =    -0.00021110    0.00050262   -0.00519191
     atom   46 type  1   force =    -0.00070941    0.00054932   -0.00560044
     atom   47 type  1   force =    -0.00050673    0.00125652   -0.00319717
     atom   48 type  1   force =     0.00156270   -0.00310179   -0.00279162
     atom   49 type  2   force =    -1.16308158   -2.03484377   -0.00840830
     atom   50 type  2   force =    -1.26199629    2.09197820   -0.35327356
     atom   51 type  3   force =    -0.24270644    0.47217270   -0.14049205
     atom   52 type  3   force =    -0.01349272    0.19499039   -0.24176913
     atom   53 type  3   force =     0.10977792    0.03486448   -0.22344511
     atom   54 type  3   force =     0.52356473    0.07552401   -0.24648868
     atom   55 type  3   force =    -0.04760523   -0.21273929   -0.19510724
     atom   56 type  4   force =    -0.00869303    0.08263074    0.00082583
     atom   57 type  4   force =     0.07538193    0.03064797   -0.00190748
     atom   58 type  4   force =     0.04318636   -0.06938057   -0.00260789
     atom   59 type  4   force =    -0.04248426   -0.06370796    0.00168578
     The ionic contribution  to forces
     atom    1 type  1   force =    -0.23134086   -0.19575098  -80.58424213
     atom    2 type  1   force =    -0.11059113   -0.32375781  -80.98428932
     atom    3 type  1   force =     0.22871346   -0.22861211  -80.85136595
     atom    4 type  1   force =     0.11316458   -0.10210772  -80.45140695
     atom    5 type  1   force =    -0.27797256    0.09009197  -81.00104595
     atom    6 type  1   force =     0.14458229    0.14659633  -81.16747218
     atom    7 type  1   force =     0.27397037    0.11386208  -80.66691446
     atom    8 type  1   force =    -0.14070496    0.05745375  -80.49953702
     atom    9 type  1   force =    -0.01992172    0.34851526  -80.72181197
     atom   10 type  1   force =     0.17552197    0.27057658  -80.53983284
     atom   11 type  1   force =     0.02156642    0.07311875  -80.30657141
     atom   12 type  1   force =    -0.17724585    0.14899445  -80.48006494
     atom   13 type  1   force =     0.01742197    0.05254284  -80.32868071
     atom   14 type  1   force =    -0.06702908   -0.17586925  -80.38107655
     atom   15 type  1   force =    -0.01658558   -0.25156976  -80.46974347
     atom   16 type  1   force =     0.06617967   -0.02432541  -80.41875479
     atom   17 type  1   force =    -0.49618337   -0.34428403   -7.05121992
     atom   18 type  1   force =    -1.31433579   -0.94534887   -9.20668624
     atom   19 type  1   force =     0.50326284   -0.94778122  -10.14689096
     atom   20 type  1   force =     1.30790277   -0.34646954   -8.06354548
     atom   21 type  1   force =    -1.31930324    0.66391933   -7.86109060
     atom   22 type  1   force =    -0.32705966    1.31952014   -9.91970543
     atom   23 type  1   force =     1.29260330    1.20375364   -8.65658054
     atom   24 type  1   force =     0.35229719    0.53334851   -6.80221286
     atom   25 type  1   force =    -0.35185986    0.91439070   -7.16953705
     atom   26 type  1   force =     0.37384580    1.25807449   -7.14180825
     atom   27 type  1   force =     0.31066200    0.28070637   -6.42235057
     atom   28 type  1   force =    -0.33267350   -0.07042063   -6.42426386
     atom   29 type  1   force =     0.35973162   -0.19121301   -6.56626718
     atom   30 type  1   force =    -0.45739392   -0.63732219   -6.66677955
     atom   31 type  1   force =    -0.34131618   -1.55846025   -7.51997949
     atom   32 type  1   force =     0.43854474   -1.13410474   -7.44025633
     atom   33 type  1   force =    -0.76736997   -1.59041570   69.72833826
     atom   34 type  1   force =    -3.58619616   -6.28528874   65.84130044
     atom   35 type  1   force =     0.45737440   -8.13305899   63.42838354
     atom   36 type  1   force =     4.00851140   -3.92877632   66.60792922
     atom   37 type  1   force =    -7.30445732   -0.87828555   63.78460949
     atom   38 type  1   force =    -2.24030402   -2.25509586   50.46482616
     atom   39 type  1   force =     6.81007050    1.49799580   55.37342009
     atom   40 type  1   force =     2.58447743    0.44489639   68.31677856
     atom   41 type  1   force =    -4.83067209    7.04369766   61.79300613
     atom   42 type  1   force =     3.81900570    8.59724348   61.72669464
     atom   43 type  1   force =     3.29524446    3.36944897   68.52787324
     atom   44 type  1   force =    -2.12151883    1.63690692   69.51080058
     atom   45 type  1   force =     0.43991279    2.80319453   69.31588623
     atom   46 type  1   force =     0.51315375    1.03037029   70.06100066
     atom   47 type  1   force =    -0.34058829   -1.92648477   70.09068988
     atom   48 type  1   force =    -0.61812681   -0.55102942   69.52796914
     atom   49 type  2   force =     4.57403350   13.90679057   61.14258306
     atom   50 type  2   force =     9.35924466  -11.11553304   61.27940221
     atom   51 type  3   force =     3.51981828   -2.44380474   40.97102117
     atom   52 type  3   force =    -1.91391112   -8.58065669   41.12884379
     atom   53 type  3   force =    -8.19207078   -3.34654518   40.80598201
     atom   54 type  3   force =    -7.90572549    5.51543375   40.81072877
     atom   55 type  3   force =     3.37138767    4.48855214   41.52198545
     atom   56 type  4   force =    -0.15734889   -3.35111083   10.18055114
     atom   57 type  4   force =    -2.94736404   -1.25167875   10.31425655
     atom   58 type  4   force =    -2.05628907    2.70466679   10.41267488
     atom   59 type  4   force =     2.23125462    2.60049962   10.24444963
     The local contribution  to forces
     atom    1 type  1   force =     0.23240070    0.19927002   80.56040537
     atom    2 type  1   force =     0.10955341    0.32580039   80.96420912
     atom    3 type  1   force =    -0.22809845    0.23011177   80.83048433
     atom    4 type  1   force =    -0.11239366    0.10674914   80.42483719
     atom    5 type  1   force =     0.27641882   -0.09011359   80.98000128
     atom    6 type  1   force =    -0.14459309   -0.14751693   81.14700467
     atom    7 type  1   force =    -0.27285697   -0.11479791   80.64457412
     atom    8 type  1   force =     0.14095386   -0.05843548   80.47710439
     atom    9 type  1   force =     0.01785075   -0.35234756   80.70082681
     atom   10 type  1   force =    -0.17442695   -0.27497341   80.51829758
     atom   11 type  1   force =    -0.01937528   -0.07508364   80.28154758
     atom   12 type  1   force =     0.17670358   -0.15133816   80.45577751
     atom   13 type  1   force =    -0.01817694   -0.05219302   80.30194602
     atom   14 type  1   force =     0.06910554    0.17708634   80.35619053
     atom   15 type  1   force =     0.01656771    0.25047418   80.44466249
     atom   16 type  1   force =    -0.06797585    0.02346938   80.39161645
     atom   17 type  1   force =     0.49824036    0.34827917    7.04599914
     atom   18 type  1   force =     1.31654058    0.94876558    9.19594543
     atom   19 type  1   force =    -0.50392079    0.94772288   10.13425554
     atom   20 type  1   force =    -1.31209610    0.35206157    8.06536004
     atom   21 type  1   force =     1.31593821   -0.66490115    7.85045092
     atom   22 type  1   force =     0.32510591   -1.33237271    9.91721655
     atom   23 type  1   force =    -1.28901441   -1.21132736    8.65957089
     atom   24 type  1   force =    -0.35331369   -0.53250552    6.79519779
     atom   25 type  1   force =     0.34873605   -0.92312132    7.16864960
     atom   26 type  1   force =    -0.37082907   -1.26150751    7.13778287
     atom   27 type  1   force =    -0.30813690   -0.28246874    6.41651878
     atom   28 type  1   force =     0.33028324    0.06699209    6.41807294
     atom   29 type  1   force =    -0.36041631    0.19556269    6.56103556
     atom   30 type  1   force =     0.45899417    0.63844846    6.65927243
     atom   31 type  1   force =     0.34199047    1.56097533    7.51580732
     atom   32 type  1   force =    -0.44016589    1.13648743    7.43307949
     atom   33 type  1   force =     0.76646469    1.59188483  -69.70394825
     atom   34 type  1   force =     3.54144751    6.20199430  -65.88640406
     atom   35 type  1   force =    -0.44759616    8.03388816  -63.49916854
     atom   36 type  1   force =    -3.96565734    3.88014960  -66.64847284
     atom   37 type  1   force =     7.17917012    0.86935065  -63.89044752
     atom   38 type  1   force =     2.26065190    2.17645785  -50.85184663
     atom   39 type  1   force =    -6.73682356   -1.43837197  -55.62775848
     atom   40 type  1   force =    -2.56407410   -0.43647484  -68.30913420
     atom   41 type  1   force =     4.78965342   -6.95602696  -61.90461498
     atom   42 type  1   force =    -3.75967962   -8.49074050  -61.83344894
     atom   43 type  1   force =    -3.27857395   -3.35271416  -68.51337042
     atom   44 type  1   force =     2.10759491   -1.63600781  -69.49415241
     atom   45 type  1   force =    -0.43793366   -2.79746414  -69.29190558
     atom   46 type  1   force =    -0.50724753   -1.02943428  -70.03592005
     atom   47 type  1   force =     0.34008074    1.92422793  -70.06576130
     atom   48 type  1   force =     0.61060884    0.55794291  -69.50573871
     atom   49 type  2   force =    -3.38185771  -11.81267729  -60.99231975
     atom   50 type  2   force =    -8.07260516    8.93064109  -60.85615015
     atom   51 type  3   force =    -3.24250603    1.98237770  -40.80156550
     atom   52 type  3   force =     1.89753175    8.33363219  -40.84968173
     atom   53 type  3   force =     8.04429761    3.30253278  -40.54786899
     atom   54 type  3   force =     7.36147486   -5.52361284  -40.56146770
     atom   55 type  3   force =    -3.31809227   -4.19267005  -41.29897994
     atom   56 type  4   force =     0.16812220    3.25734828  -10.15492585
     atom   57 type  4   force =     2.84999910    1.20994299  -10.28183076
     atom   58 type  4   force =     1.99232020   -2.60909325  -10.36393495
     atom   59 type  4   force =    -2.18620249   -2.51477103  -10.19953810
     The core correction contribution to forces
     atom    1 type  1   force =    -0.00007716   -0.00005616    0.01399544
     atom    2 type  1   force =    -0.00004619   -0.00005035    0.01408667
     atom    3 type  1   force =     0.00010902   -0.00007409    0.01397879
     atom    4 type  1   force =    -0.00004542    0.00006356    0.01372351
     atom    5 type  1   force =    -0.00002114    0.00003367    0.01414285
     atom    6 type  1   force =     0.00005424    0.00001706    0.01409647
     atom    7 type  1   force =     0.00001231    0.00006020    0.01418282
     atom    8 type  1   force =     0.00005132   -0.00005798    0.01411608
     atom    9 type  1   force =     0.00001648    0.00018098    0.01379104
     atom   10 type  1   force =     0.00000614    0.00012729    0.01400774
     atom   11 type  1   force =     0.00002724    0.00002418    0.01433680
     atom   12 type  1   force =     0.00003064    0.00009769    0.01421968
     atom   13 type  1   force =     0.00000132    0.00003913    0.01404806
     atom   14 type  1   force =    -0.00000910    0.00001074    0.01410055
     atom   15 type  1   force =    -0.00004506   -0.00003454    0.01418823
     atom   16 type  1   force =     0.00006170   -0.00002373    0.01385722
     atom   17 type  1   force =     0.00016651    0.00014680    0.00047741
     atom   18 type  1   force =     0.00021946    0.00033690   -0.00001506
     atom   19 type  1   force =    -0.00012184    0.00046094    0.00045354
     atom   20 type  1   force =     0.00005617   -0.00001300   -0.00048811
     atom   21 type  1   force =     0.00008369    0.00001010   -0.00014809
     atom   22 type  1   force =     0.00009982   -0.00039174   -0.00011414
     atom   23 type  1   force =    -0.00021844   -0.00032649    0.00053409
     atom   24 type  1   force =    -0.00004798   -0.00000217    0.00021630
     atom   25 type  1   force =     0.00006293   -0.00020274    0.00014241
     atom   26 type  1   force =     0.00004077   -0.00035585    0.00038129
     atom   27 type  1   force =     0.00001137   -0.00003963    0.00020150
     atom   28 type  1   force =     0.00003166   -0.00006622    0.00015212
     atom   29 type  1   force =    -0.00026215    0.00016622    0.00036491
     atom   30 type  1   force =     0.00010308    0.00006997    0.00030507
     atom   31 type  1   force =     0.00021738    0.00000578    0.00017407
     atom   32 type  1   force =    -0.00006477    0.00006427    0.00024076
     atom   33 type  1   force =     0.00033568    0.00023174   -0.01434007
     atom   34 type  1   force =     0.00192193    0.00330973   -0.01055899
     atom   35 type  1   force =    -0.00104643    0.00404589   -0.00995906
     atom   36 type  1   force =    -0.00159035    0.00202832   -0.01201364
     atom   37 type  1   force =     0.00749325   -0.00041486   -0.00347645
     atom   38 type  1   force =     0.00024711   -0.00219262    0.03316139
     atom   39 type  1   force =    -0.00651554   -0.00365737    0.01962818
     atom   40 type  1   force =    -0.00040120   -0.00016019   -0.01425249
     atom   41 type  1   force =     0.00237122   -0.00728294    0.00093873
     atom   42 type  1   force =    -0.00324469   -0.00511037   -0.00701097
     atom   43 type  1   force =    -0.00064511   -0.00081292   -0.01402017
     atom   44 type  1   force =     0.00057555   -0.00030043   -0.01403622
     atom   45 type  1   force =    -0.00030110   -0.00044208   -0.01454415
     atom   46 type  1   force =    -0.00002361    0.00000842   -0.01457942
     atom   47 type  1   force =     0.00012999    0.00049161   -0.01409903
     atom   48 type  1   force =     0.00015974   -0.00032914   -0.01441179
     atom   49 type  2   force =     0.00913549    0.01603182   -0.00068053
     atom   50 type  2   force =     0.00948692   -0.01509149    0.00302180
     atom   51 type  3   force =     0.00289095   -0.01002185    0.00170527
     atom   52 type  3   force =     0.00121663   -0.00034486    0.00357894
     atom   53 type  3   force =     0.00012282    0.00177815    0.00363321
     atom   54 type  3   force =    -0.00947664   -0.00359216    0.00411403
     atom   55 type  3   force =     0.00315687   -0.00068646    0.00207400
     atom   56 type  4   force =     0.00000000    0.00000000    0.00000000
     atom   57 type  4   force =     0.00000000    0.00000000    0.00000000
     atom   58 type  4   force =     0.00000000    0.00000000    0.00000000
     atom   59 type  4   force =     0.00000000    0.00000000    0.00000000
     The Hubbard contrib.    to forces
     atom    1 type  1   force =     0.00000000    0.00000000    0.00000000
     atom    2 type  1   force =     0.00000000    0.00000000    0.00000000
     atom    3 type  1   force =     0.00000000    0.00000000    0.00000000
     atom    4 type  1   force =     0.00000000    0.00000000    0.00000000
     atom    5 type  1   force =     0.00000000    0.00000000    0.00000000
     atom    6 type  1   force =     0.00000000    0.00000000    0.00000000
     atom    7 type  1   force =     0.00000000    0.00000000    0.00000000
     atom    8 type  1   force =     0.00000000    0.00000000    0.00000000
     atom    9 type  1   force =     0.00000000    0.00000000    0.00000000
     atom   10 type  1   force =     0.00000000    0.00000000    0.00000000
     atom   11 type  1   force =     0.00000000    0.00000000    0.00000000
     atom   12 type  1   force =     0.00000000    0.00000000    0.00000000
     atom   13 type  1   force =     0.00000000    0.00000000    0.00000000
     atom   14 type  1   force =     0.00000000    0.00000000    0.00000000
     atom   15 type  1   force =     0.00000000    0.00000000    0.00000000
     atom   16 type  1   force =     0.00000000    0.00000000    0.00000000
     atom   17 type  1   force =     0.00000000    0.00000000    0.00000000
     atom   18 type  1   force =     0.00000000    0.00000000    0.00000000
     atom   19 type  1   force =     0.00000000    0.00000000    0.00000000
     atom   20 type  1   force =     0.00000000    0.00000000    0.00000000
     atom   21 type  1   force =     0.00000000    0.00000000    0.00000000
     atom   22 type  1   force =     0.00000000    0.00000000    0.00000000
     atom   23 type  1   force =     0.00000000    0.00000000    0.00000000
     atom   24 type  1   force =     0.00000000    0.00000000    0.00000000
     atom   25 type  1   force =     0.00000000    0.00000000    0.00000000
     atom   26 type  1   force =     0.00000000    0.00000000    0.00000000
     atom   27 type  1   force =     0.00000000    0.00000000    0.00000000
     atom   28 type  1   force =     0.00000000    0.00000000    0.00000000
     atom   29 type  1   force =     0.00000000    0.00000000    0.00000000
     atom   30 type  1   force =     0.00000000    0.00000000    0.00000000
     atom   31 type  1   force =     0.00000000    0.00000000    0.00000000
     atom   32 type  1   force =     0.00000000    0.00000000    0.00000000
     atom   33 type  1   force =     0.00000000    0.00000000    0.00000000
     atom   34 type  1   force =     0.00000000    0.00000000    0.00000000
     atom   35 type  1   force =     0.00000000    0.00000000    0.00000000
     atom   36 type  1   force =     0.00000000    0.00000000    0.00000000
     atom   37 type  1   force =     0.00000000    0.00000000    0.00000000
     atom   38 type  1   force =     0.00000000    0.00000000    0.00000000
     atom   39 type  1   force =     0.00000000    0.00000000    0.00000000
     atom   40 type  1   force =     0.00000000    0.00000000    0.00000000
     atom   41 type  1   force =     0.00000000    0.00000000    0.00000000
     atom   42 type  1   force =     0.00000000    0.00000000    0.00000000
     atom   43 type  1   force =     0.00000000    0.00000000    0.00000000
     atom   44 type  1   force =     0.00000000    0.00000000    0.00000000
     atom   45 type  1   force =     0.00000000    0.00000000    0.00000000
     atom   46 type  1   force =     0.00000000    0.00000000    0.00000000
     atom   47 type  1   force =     0.00000000    0.00000000    0.00000000
     atom   48 type  1   force =     0.00000000    0.00000000    0.00000000
     atom   49 type  2   force =     0.00000000    0.00000000    0.00000000
     atom   50 type  2   force =     0.00000000    0.00000000    0.00000000
     atom   51 type  3   force =     0.00000000    0.00000000    0.00000000
     atom   52 type  3   force =     0.00000000    0.00000000    0.00000000
     atom   53 type  3   force =     0.00000000    0.00000000    0.00000000
     atom   54 type  3   force =     0.00000000    0.00000000    0.00000000
     atom   55 type  3   force =     0.00000000    0.00000000    0.00000000
     atom   56 type  4   force =     0.00000000    0.00000000    0.00000000
     atom   57 type  4   force =     0.00000000    0.00000000    0.00000000
     atom   58 type  4   force =     0.00000000    0.00000000    0.00000000
     atom   59 type  4   force =     0.00000000    0.00000000    0.00000000
     The SCF correction term to forces
     atom    1 type  1   force =    -0.00000000   -0.00000000    0.00000000
     atom    2 type  1   force =     0.00000000   -0.00000000    0.00000000
     atom    3 type  1   force =     0.00000000   -0.00000000    0.00000000
     atom    4 type  1   force =    -0.00000000   -0.00000000    0.00000000
     atom    5 type  1   force =     0.00000000    0.00000000    0.00000000
     atom    6 type  1   force =     0.00000000    0.00000000    0.00000000
     atom    7 type  1   force =    -0.00000000   -0.00000000   -0.00000000
     atom    8 type  1   force =    -0.00000000   -0.00000000   -0.00000000
     atom    9 type  1   force =     0.00000000    0.00000000    0.00000000
     atom   10 type  1   force =    -0.00000000    0.00000000    0.00000000
     atom   11 type  1   force =    -0.00000000    0.00000000   -0.00000000
     atom   12 type  1   force =     0.00000000    0.00000000    0.00000000
     atom   13 type  1   force =    -0.00000000   -0.00000000    0.00000000
     atom   14 type  1   force =    -0.00000000   -0.00000000    0.00000000
     atom   15 type  1   force =     0.00000000    0.00000000    0.00000000
     atom   16 type  1   force =     0.00000000    0.00000000    0.00000000
     atom   17 type  1   force =    -0.00095718   -0.00530468    0.00291968
     atom   18 type  1   force =     0.00011346   -0.00155902    0.00256194
     atom   19 type  1   force =     0.00045281   -0.00080300    0.00128700
     atom   20 type  1   force =     0.00037978   -0.00472238    0.00147039
     atom   21 type  1   force =     0.00197753    0.00208415    0.00461707
     atom   22 type  1   force =     0.00066306    0.00350702    0.00296528
     atom   23 type  1   force =    -0.00249674    0.00170693    0.00162801
     atom   24 type  1   force =    -0.00016303    0.00067893    0.00281185
     atom   25 type  1   force =     0.00316781    0.00407291    0.00410666
     atom   26 type  1   force =    -0.00294239    0.00358891    0.00229199
     atom   27 type  1   force =    -0.00208765    0.00312490    0.00124250
     atom   28 type  1   force =     0.00188335    0.00330929    0.00351836
     atom   29 type  1   force =     0.00017741   -0.00337021    0.00284027
     atom   30 type  1   force =    -0.00336323   -0.00231819    0.00183038
     atom   31 type  1   force =    -0.00004392   -0.00157746    0.00031756
     atom   32 type  1   force =     0.00323717   -0.00240032    0.00122569
     atom   33 type  1   force =    -0.00143421   -0.00483572    0.00036516
     atom   34 type  1   force =    -0.00351553   -0.00141775    0.00047366
     atom   35 type  1   force =     0.00137027   -0.00154022   -0.00020556
     atom   36 type  1   force =     0.00363495   -0.00459257   -0.00103898
     atom   37 type  1   force =    -0.00037498    0.00009878    0.00232914
     atom   38 type  1   force =    -0.00066510    0.00259872    0.00134106
     atom   39 type  1   force =    -0.00030665    0.00043248    0.00143495
     atom   40 type  1   force =     0.00133775   -0.00170345    0.00181347
     atom   41 type  1   force =     0.00060910    0.00410190    0.00177198
     atom   42 type  1   force =    -0.00263013    0.00402868    0.00090823
     atom   43 type  1   force =    -0.00017614    0.00221664    0.00252818
     atom   44 type  1   force =     0.00217473    0.00248451    0.00351913
     atom   45 type  1   force =     0.00066624    0.00092297   -0.00032406
     atom   46 type  1   force =    -0.00470566    0.00148170    0.00079332
     atom   47 type  1   force =     0.00046424   -0.00186198    0.00082621
     atom   48 type  1   force =     0.00354439   -0.00237112   -0.00006196
     atom   49 type  2   force =    -0.00061719    0.00075342    0.00008927
     atom   50 type  2   force =     0.00036322    0.00031028    0.00088101
     atom   51 type  3   force =    -0.00020784    0.00060911    0.00024108
     atom   52 type  3   force =    -0.00014913    0.00073922    0.00050731
     atom   53 type  3   force =    -0.00017379    0.00064504    0.00020920
     atom   54 type  3   force =    -0.00011034    0.00071167   -0.00010577
     atom   55 type  3   force =    -0.00013426    0.00045021    0.00021800
     atom   56 type  4   force =    -0.00007849    0.00005001    0.00024461
     atom   57 type  4   force =    -0.00007828    0.00005751    0.00005029
     atom   58 type  4   force =     0.00001610    0.00016154   -0.00011168
     atom   59 type  4   force =    -0.00004668    0.00003304    0.00007617

     DFT-D3 dispersion contribution to forces:
     atom    1 type  1   force =    -0.00001979   -0.00001398    0.00729673
     atom    2 type  1   force =    -0.00000584   -0.00003099    0.00727387
     atom    3 type  1   force =     0.00001929   -0.00002404    0.00728485
     atom    4 type  1   force =     0.00000644   -0.00000507    0.00731295
     atom    5 type  1   force =    -0.00002418    0.00001080    0.00727651
     atom    6 type  1   force =     0.00001351    0.00001169    0.00726579
     atom    7 type  1   force =     0.00002494    0.00001249    0.00729369
     atom    8 type  1   force =    -0.00001451    0.00000986    0.00729862
     atom    9 type  1   force =    -0.00000454    0.00003145    0.00728469
     atom   10 type  1   force =     0.00001707    0.00002169    0.00729772
     atom   11 type  1   force =     0.00000569    0.00000545    0.00731635
     atom   12 type  1   force =    -0.00001813    0.00001507    0.00729920
     atom   13 type  1   force =     0.00000083   -0.00000070    0.00732676
     atom   14 type  1   force =     0.00000102   -0.00001732    0.00731218
     atom   15 type  1   force =     0.00000011   -0.00002285    0.00730567
     atom   16 type  1   force =    -0.00000197   -0.00000365    0.00731587
     atom   17 type  1   force =     0.00013271    0.00004270    0.00035255
     atom   18 type  1   force =     0.00024943    0.00021999    0.00137721
     atom   19 type  1   force =    -0.00014272    0.00021486    0.00162001
     atom   20 type  1   force =    -0.00024296    0.00006539    0.00068806
     atom   21 type  1   force =     0.00028401   -0.00013560    0.00079309
     atom   22 type  1   force =    -0.00000410   -0.00033307    0.00156172
     atom   23 type  1   force =    -0.00022084   -0.00025785    0.00096622
     atom   24 type  1   force =    -0.00005308   -0.00004809    0.00020936
     atom   25 type  1   force =     0.00003453   -0.00018231    0.00036958
     atom   26 type  1   force =    -0.00005634   -0.00015954    0.00029729
     atom   27 type  1   force =    -0.00000703   -0.00002228    0.00007872
     atom   28 type  1   force =     0.00002945   -0.00001494    0.00008168
     atom   29 type  1   force =    -0.00003432    0.00003360    0.00009010
     atom   30 type  1   force =     0.00007887    0.00011309    0.00022830
     atom   31 type  1   force =     0.00001897    0.00026433    0.00056463
     atom   32 type  1   force =    -0.00006264    0.00018728    0.00040585
     atom   33 type  1   force =     0.00047250    0.00062834   -0.00658576
     atom   34 type  1   force =     0.00010633   -0.00051503   -0.00829012
     atom   35 type  1   force =    -0.00044465   -0.00085077   -0.00876569
     atom   36 type  1   force =    -0.00028014    0.00014877   -0.00735289
     atom   37 type  1   force =     0.00007087   -0.00018894   -0.00758682
     atom   38 type  1   force =    -0.00003055    0.00001494   -0.00897750
     atom   39 type  1   force =    -0.00091344    0.00044699   -0.00806323
     atom   40 type  1   force =    -0.00054262   -0.00004182   -0.00615600
     atom   41 type  1   force =    -0.00003907    0.00006369   -0.00792195
     atom   42 type  1   force =    -0.00017130    0.00066056   -0.00829893
     atom   43 type  1   force =    -0.00061540   -0.00053003   -0.00689083
     atom   44 type  1   force =     0.00081572   -0.00062260   -0.00646159
     atom   45 type  1   force =    -0.00016064   -0.00093976   -0.00654689
     atom   46 type  1   force =    -0.00005591   -0.00024468   -0.00672327
     atom   47 type  1   force =     0.00006367    0.00071865   -0.00674376
     atom   48 type  1   force =     0.00015019    0.00006057   -0.00653210
     atom   49 type  2   force =     0.00091206   -0.00030422   -0.00074095
     atom   50 type  2   force =     0.00013379    0.00039695    0.00006505
     atom   51 type  3   force =    -0.00108536    0.00011235   -0.00102580
     atom   52 type  3   force =     0.00021731    0.00092347   -0.00121626
     atom   53 type  3   force =     0.00015074   -0.00009049   -0.00092322
     atom   54 type  3   force =     0.00017009    0.00033274   -0.00102444
     atom   55 type  3   force =     0.00143707   -0.00013088   -0.00123588
     atom   56 type  4   force =     0.00024006   -0.00019271   -0.00017067
     atom   57 type  4   force =    -0.00033857    0.00030297   -0.00064032
     atom   58 type  4   force =    -0.00016010    0.00010877   -0.00129840
     atom   59 type  4   force =    -0.00010654   -0.00025532   -0.00033761

     Total force =     0.379435     Total SCF correction =     0.023557

     BFGS Geometry Optimization
     Energy error            =      0.0E+00 Ry
     Gradient error          =      1.7E-01 Ry/Bohr

     number of scf cycles    =   1
     number of bfgs steps    =   0

     energy             new  =   -3269.0921124223 Ry

     new trust radius        =       0.1873404566 bohr
     new conv_thr            =       0.0001000000 Ry


ATOMIC_POSITIONS (angstrom)
Pt            1.3858852100        0.8001412000        9.9263750900    0   0   0
Pt            4.1577136200        0.7998607100        9.9260138200    0   0   0
Pt            6.9297207100        0.7998607100        9.9260138200    0   0   0
Pt            9.7015491200        0.8001412000        9.9263750900    0   0   0
Pt            2.7715565100        3.2007552600        9.9260138200    0   0   0
Pt            5.5437171600        3.2006666000        9.9255302800    0   0   0
Pt            8.3158778200        3.2007552600        9.9260138200    0   0   0
Pt           11.0874343300        3.2007850400        9.9263714800    0   0   0
Pt            4.1575600500        5.6013838200        9.9260138200    0   0   0
Pt            6.9298742800        5.6013838200        9.9260138200    0   0   0
Pt            9.7017065700        5.6012829000        9.9263544800    0   0   0
Pt           12.4731620900        5.6012829000        9.9263544800    0   0   0
Pt            5.5437171600        8.0017174000        9.9263750900    0   0   0
Pt            8.3156783200        8.0016072700        9.9263714800    0   0   0
Pt           11.0874343300        8.0014337800        9.9263544800    0   0   0
Pt           13.8591903400        8.0016072700        9.9263714800    0   0   0
Pt            0.0011623380        1.6000504378       12.2657336580
Pt            2.7720335819        1.6003571900       12.2582206380
Pt            5.5425785540        1.6001426026       12.2580158640
Pt            8.3160129789        1.5990000775       12.2622361919
Pt            1.3847433650        4.0012486640       12.2601866003
Pt            4.1576657396        3.9980376358       12.2608890479
Pt            6.9291016664        3.9987700709       12.2662653525
Pt            9.7012976737        4.0009633798       12.2640145054
Pt            2.7720845792        6.4005801685       12.2669879893
Pt            5.5437460385        6.4008557737       12.2653649553
Pt            8.3154195411        6.4022937979       12.2632873956
Pt           11.0876871066        6.4017127201       12.2638970632
Pt            4.1562660066        8.8024529194       12.2654248312
Pt            6.9294322031        8.8020347703       12.2636483209
Pt            9.7023913365        8.8020583081       12.2635589715
Pt           12.4737130465        8.8018099416       12.2633959701
Pt           -0.0004373901       -0.0027328393       14.5988565772
Pt            2.7609427881       -0.0225697260       14.5844495170
Pt            5.5468512651       -0.0258803234       14.5821171181
Pt            8.3254346487       -0.0110412875       14.5926978637
Pt            1.3673247333        2.3957346879       14.5858781953
Pt            4.1605117111        2.3622268757       14.5088203690
Pt            6.9462251784        2.4112052443       14.5352229743
Pt            9.7071538543        2.4016520899       14.5970034810
Pt            2.7631625614        4.8131647383       14.5867324512
Pt            5.5525919349        4.8276303268       14.5787079972
Pt            8.3215423895        4.8076209200       14.5985315565
Pt           11.0827487644        4.8036221405       14.5998368644
Pt            4.1586217796        7.2048238109       14.5986029387
Pt            6.9300893981        7.2032133250       14.5994481253
Pt            9.7015138568        7.2005084259       14.6009255454
Pt           12.4720696525        7.2020028505       14.5991888527
O             4.6203939230        3.8400778411       16.6745111701
O             7.1460578109        1.2444878583       16.6392804352
C             5.1321611771        2.5425215175       16.6159637188
C             4.0876467504        1.5813353684       16.6213559250
C             2.8712098254        2.3362541983       16.6199399490
C             3.2315822981        3.7026222862       16.6029957648
C             6.5344559148        2.4439937448       16.6152717096
H             4.2204688692        0.5276555677       16.6139861611
H             1.8726899991        1.9423733733       16.6158870710
H             2.6770465403        4.6063871168       16.6236155509
H             7.1187349043        3.3449724085       16.6242695925



     Writing config-only to output data dir ./pwscf.save/
     NEW-OLD atomic charge density approx. for the potential

     negative rho (up, down):  9.448E-03 0.000E+00

     total cpu time spent up to now is      956.4 secs

     Self-consistent Calculation

     iteration #  1     ecut=    35.00 Ry     beta= 0.50
     Davidson diagonalization with overlap
     c_bands:  1 eigenvalues not converged
     ethr =  1.00E-06,  avg # of iterations = 20.0

     negative rho (up, down):  9.423E-03 0.000E+00

     total cpu time spent up to now is     1072.0 secs

     total energy              =   -3269.16013799 Ry
     estimated scf accuracy    <       0.04168731 Ry

     iteration #  2     ecut=    35.00 Ry     beta= 0.50
     Davidson diagonalization with overlap
     ethr =  8.08E-06,  avg # of iterations = 10.0

     negative rho (up, down):  1.275E-02 0.000E+00

     total cpu time spent up to now is     1114.0 secs

     total energy              =   -3269.03532806 Ry
     estimated scf accuracy    <       4.31701785 Ry

     iteration #  3     ecut=    35.00 Ry     beta= 0.50
     Davidson diagonalization with overlap
     ethr =  8.08E-06,  avg # of iterations =  9.0

     negative rho (up, down):  1.423E-02 0.000E+00

     total cpu time spent up to now is     1154.3 secs

     total energy              =   -3269.14674923 Ry
     estimated scf accuracy    <       0.75815520 Ry

     iteration #  4     ecut=    35.00 Ry     beta= 0.50
     Davidson diagonalization with overlap
     ethr =  8.08E-06,  avg # of iterations =  2.0

     negative rho (up, down):  1.277E-02 0.000E+00

     total cpu time spent up to now is     1195.2 secs

     total energy              =   -3269.17015963 Ry
     estimated scf accuracy    <       0.12444993 Ry

     iteration #  5     ecut=    35.00 Ry     beta= 0.50
     Davidson diagonalization with overlap
     ethr =  8.08E-06,  avg # of iterations =  2.0

     negative rho (up, down):  1.135E-02 0.000E+00

     total cpu time spent up to now is     1229.1 secs

     total energy              =   -3269.17156086 Ry
     estimated scf accuracy    <       0.07677198 Ry

     iteration #  6     ecut=    35.00 Ry     beta= 0.50
     Davidson diagonalization with overlap
     ethr =  8.08E-06,  avg # of iterations =  1.0

     negative rho (up, down):  1.072E-02 0.000E+00

     total cpu time spent up to now is     1265.3 secs

     total energy              =   -3269.17571705 Ry
     estimated scf accuracy    <       0.01888008 Ry

     iteration #  7     ecut=    35.00 Ry     beta= 0.50
     Davidson diagonalization with overlap
     ethr =  3.66E-06,  avg # of iterations =  1.0

     negative rho (up, down):  1.023E-02 0.000E+00

     total cpu time spent up to now is     1293.8 secs

     total energy              =   -3269.17639470 Ry
     estimated scf accuracy    <       0.02177126 Ry

     iteration #  8     ecut=    35.00 Ry     beta= 0.50
     Davidson diagonalization with overlap
     ethr =  3.66E-06,  avg # of iterations =  1.0

     negative rho (up, down):  9.736E-03 0.000E+00

     total cpu time spent up to now is     1323.4 secs

     total energy              =   -3269.17750357 Ry
     estimated scf accuracy    <       0.00341600 Ry

     iteration #  9     ecut=    35.00 Ry     beta= 0.50
     Davidson diagonalization with overlap
     ethr =  6.62E-07,  avg # of iterations =  1.0

     negative rho (up, down):  9.610E-03 0.000E+00

     total cpu time spent up to now is     1359.7 secs

     total energy              =   -3269.17772227 Ry
     estimated scf accuracy    <       0.00074063 Ry

     iteration # 10     ecut=    35.00 Ry     beta= 0.50
     Davidson diagonalization with overlap
     ethr =  1.44E-07,  avg # of iterations =  2.0

     negative rho (up, down):  9.559E-03 0.000E+00

     total cpu time spent up to now is     1390.3 secs

     total energy              =   -3269.17772328 Ry
     estimated scf accuracy    <       0.00154619 Ry

     iteration # 11     ecut=    35.00 Ry     beta= 0.50
     Davidson diagonalization with overlap
     ethr =  1.44E-07,  avg # of iterations =  1.0

     negative rho (up, down):  9.503E-03 0.000E+00

     total cpu time spent up to now is     1425.9 secs

     total energy              =   -3269.17778256 Ry
     estimated scf accuracy    <       0.00085397 Ry

     iteration # 12     ecut=    35.00 Ry     beta= 0.50
     Davidson diagonalization with overlap
     ethr =  1.44E-07,  avg # of iterations =  1.0

     negative rho (up, down):  9.490E-03 0.000E+00

     total cpu time spent up to now is     1464.4 secs

     total energy              =   -3269.17781808 Ry
     estimated scf accuracy    <       0.00033257 Ry

     iteration # 13     ecut=    35.00 Ry     beta= 0.50
     Davidson diagonalization with overlap
     ethr =  6.45E-08,  avg # of iterations =  2.0

     negative rho (up, down):  9.487E-03 0.000E+00

     total cpu time spent up to now is     1493.7 secs

     total energy              =   -3269.17779287 Ry
     estimated scf accuracy    <       0.00200574 Ry

     iteration # 14     ecut=    35.00 Ry     beta= 0.50
     Davidson diagonalization with overlap
     ethr =  6.45E-08,  avg # of iterations =  1.0

     negative rho (up, down):  9.484E-03 0.000E+00

     total cpu time spent up to now is     1538.6 secs

     total energy              =   -3269.17783595 Ry
     estimated scf accuracy    <       0.00033840 Ry

     iteration # 15     ecut=    35.00 Ry     beta= 0.50
     Davidson diagonalization with overlap
     ethr =  6.45E-08,  avg # of iterations =  1.0

     negative rho (up, down):  9.472E-03 0.000E+00

     total cpu time spent up to now is     1577.4 secs

     total energy              =   -3269.17784711 Ry
     estimated scf accuracy    <       0.00012248 Ry

     iteration # 16     ecut=    35.00 Ry     beta= 0.50
     Davidson diagonalization with overlap
     ethr =  2.37E-08,  avg # of iterations =  1.0

     negative rho (up, down):  9.460E-03 0.000E+00

     total cpu time spent up to now is     1614.7 secs

     End of self-consistent calculation

          k = 0.0000 0.0000 0.0000 ( 30824 PWs)   bands (ev):

   -23.0725 -19.3708 -15.8851 -14.5781 -11.6347 -10.5121  -9.4253  -8.3527
    -7.9892  -7.4392  -7.0975  -6.2003  -6.0744  -6.0679  -6.0371  -5.9644
    -5.9579  -5.9098  -5.8048  -5.6898  -5.6089  -5.3450  -5.1791  -5.1566
    -5.1350  -5.0446  -4.9756  -4.8874  -4.8778  -4.8255  -4.7489  -4.6679
    -4.6595  -4.6433  -4.5914  -4.5109  -4.4732  -4.4423  -4.4293  -4.3899
    -4.3640  -4.3311  -4.2718  -4.2513  -4.2422  -4.2183  -4.1895  -4.1607
    -4.1482  -4.1221  -4.1093  -4.0991  -4.0869  -4.0596  -4.0387  -4.0300
    -4.0262  -4.0183  -4.0087  -3.9843  -3.9168  -3.6467  -3.5702  -3.5694
    -3.5590  -3.5364  -3.5327  -3.4366  -3.3774  -3.3653  -3.3489  -3.3221
    -3.3108  -3.2891  -3.2089  -3.1884  -3.1790  -3.1762  -3.1707  -3.1460
    -2.9090  -2.8231  -2.8076  -2.7918  -2.7841  -2.7821  -2.7794  -2.7693
    -2.7678  -2.7537  -2.7459  -2.7382  -2.7350  -2.7169  -2.7164  -2.7083
    -2.7009  -2.6967  -2.6642  -2.6372  -2.5714  -2.5520  -2.5289  -2.4508
    -2.4234  -2.3461  -2.3407  -2.3197  -2.3068  -2.2955  -2.2831  -2.1515
    -2.1436  -2.1106  -2.0422  -2.0026  -1.9875  -1.9568  -1.9495  -1.9383
    -1.9377  -1.9063  -1.8898  -1.8846  -1.8704  -1.8677  -1.8450  -1.8282
    -1.8156  -1.7984  -1.7629  -1.7506  -1.7242  -1.6709  -1.6664  -1.6627
    -1.6437  -1.6227  -1.6177  -1.5957  -1.5794  -1.5636  -1.5598  -1.5506
    -1.5485  -1.5435  -1.5369  -1.5307  -1.5206  -1.5154  -1.5087  -1.4962
    -1.4836  -1.4733  -1.4676  -1.4153  -1.3869  -1.3547  -1.3531  -1.3285
    -1.2490  -1.2326  -1.1834  -1.1713  -1.1469  -1.1388  -1.1310  -1.1225
    -1.0876  -0.9936  -0.9397  -0.8247  -0.7167  -0.7142  -0.7017  -0.6769
    -0.6715  -0.6575  -0.6546  -0.6055  -0.5838  -0.5766  -0.5434  -0.5395
    -0.5125  -0.4910  -0.4689  -0.4580  -0.4003  -0.3687  -0.2998  -0.2898
    -0.2850  -0.2694  -0.2571  -0.2383  -0.2319  -0.2190  -0.1877  -0.1790
    -0.1297  -0.1246  -0.1113  -0.1068  -0.0906  -0.0815  -0.0496  -0.0389
    -0.0304   0.0143   0.0230   0.0273   0.0387   0.0427   0.0471   0.0761
     0.1519   0.3618   0.3899   0.4060   0.4132   0.4293   0.4402   0.4558
     0.4790   0.5019   0.5137   0.5162   0.5264   0.5685   0.6020   0.6178
     0.6268   0.6332   0.7225   0.7912   0.9723   1.0131   1.0365   1.0481
     1.0657   1.0711   1.0761   1.1008   1.1136   1.1239   1.1563   1.1904
     1.2033   1.2118   1.2465   1.2568   1.2604   1.2677   1.2723   1.2781
     1.3884   1.4104   1.5333   1.5423   1.5565   1.5713   1.5876   1.5918
     1.5940   1.5997   1.6157   1.8125   1.8409   1.8559   1.9588   1.9590
     1.9596   2.1726   2.3599   2.4221   2.5317   2.7547   2.8341   2.9153
     2.9635   3.1564   3.2202   3.4976   3.5248   3.5649   3.5730   3.6132
     3.6288   3.7327   3.9886   4.1327   4.1573   4.1733   4.1853   4.2271
     4.2418   4.3093   4.3748   4.4529   4.5781   4.6039   4.8312   5.6227
     5.7475   5.8070   5.8426   5.8797   5.9541   6.0427

     the Fermi energy is     1.5111 ev

!    total energy              =   -3269.17782544 Ry
     estimated scf accuracy    <       0.00003397 Ry
     smearing contrib. (-TS)   =      -0.08519336 Ry
     internal energy E=F+TS    =   -3269.09263207 Ry

     The total energy is F=E-TS. E is the sum of the following terms:
     one-electron contribution =  -32086.89476305 Ry
     hartree contribution      =   16359.62473918 Ry
     xc contribution           =   -1184.89363818 Ry
     ewald contribution        =   13644.74304746 Ry
     DFT-D3 Dispersion         =      -1.67201749 Ry

     convergence has been achieved in  16 iterations

     negative rho (up, down):  9.460E-03 0.000E+00

     Forces acting on atoms (cartesian axes, Ry/au):

     atom    1 type  1   force =    -0.00050106    0.00096053   -0.00187597
     atom    2 type  1   force =    -0.00053595    0.00037974   -0.00204515
     atom    3 type  1   force =     0.00000681    0.00123247   -0.00068171
     atom    4 type  1   force =     0.00159130    0.00070385   -0.00282016
     atom    5 type  1   force =    -0.00031142    0.00121210   -0.00044393
     atom    6 type  1   force =    -0.00018241    0.00101092   -0.00148722
     atom    7 type  1   force =    -0.00004505   -0.00016894    0.00048419
[...]
     atom   12 type  1   force =     0.00000000    0.00000000    0.00000000
     atom   13 type  1   force =     0.00000000    0.00000000    0.00000000
     atom   14 type  1   force =     0.00000000    0.00000000    0.00000000
     atom   15 type  1   force =     0.00000000    0.00000000    0.00000000
     atom   16 type  1   force =     0.00000000    0.00000000    0.00000000
     atom   17 type  1   force =     0.00000000    0.00000000    0.00000000
     atom   18 type  1   force =     0.00000000    0.00000000    0.00000000
     atom   19 type  1   force =     0.00000000    0.00000000    0.00000000
     atom   20 type  1   force =     0.00000000    0.00000000    0.00000000
     atom   21 type  1   force =     0.00000000    0.00000000    0.00000000
     atom   22 type  1   force =     0.00000000    0.00000000    0.00000000
     atom   23 type  1   force =     0.00000000    0.00000000    0.00000000
     atom   24 type  1   force =     0.00000000    0.00000000    0.00000000
     atom   25 type  1   force =     0.00000000    0.00000000    0.00000000
     atom   26 type  1   force =     0.00000000    0.00000000    0.00000000
     atom   27 type  1   force =     0.00000000    0.00000000    0.00000000
     atom   28 type  1   force =     0.00000000    0.00000000    0.00000000
     atom   29 type  1   force =     0.00000000    0.00000000    0.00000000
     atom   30 type  1   force =     0.00000000    0.00000000    0.00000000
     atom   31 type  1   force =     0.00000000    0.00000000    0.00000000
     atom   32 type  1   force =     0.00000000    0.00000000    0.00000000
     atom   33 type  1   force =     0.00000000    0.00000000    0.00000000
     atom   34 type  1   force =     0.00000000    0.00000000    0.00000000
     atom   35 type  1   force =     0.00000000    0.00000000    0.00000000
     atom   36 type  1   force =     0.00000000    0.00000000    0.00000000
     atom   37 type  1   force =     0.00000000    0.00000000    0.00000000
     atom   38 type  1   force =     0.00000000    0.00000000    0.00000000
     atom   39 type  1   force =     0.00000000    0.00000000    0.00000000
     atom   40 type  1   force =     0.00000000    0.00000000    0.00000000
     atom   41 type  1   force =     0.00000000    0.00000000    0.00000000
     atom   42 type  1   force =     0.00000000    0.00000000    0.00000000
     atom   43 type  1   force =     0.00000000    0.00000000    0.00000000
     atom   44 type  1   force =     0.00000000    0.00000000    0.00000000
     atom   45 type  1   force =     0.00000000    0.00000000    0.00000000
     atom   46 type  1   force =     0.00000000    0.00000000    0.00000000
     atom   47 type  1   force =     0.00000000    0.00000000    0.00000000
     atom   48 type  1   force =     0.00000000    0.00000000    0.00000000
     atom   49 type  2   force =     0.00000000    0.00000000    0.00000000
     atom   50 type  2   force =     0.00000000    0.00000000    0.00000000
     atom   51 type  3   force =     0.00000000    0.00000000    0.00000000
     atom   52 type  3   force =     0.00000000    0.00000000    0.00000000
     atom   53 type  3   force =     0.00000000    0.00000000    0.00000000
     atom   54 type  3   force =     0.00000000    0.00000000    0.00000000
     atom   55 type  3   force =     0.00000000    0.00000000    0.00000000
     atom   56 type  4   force =     0.00000000    0.00000000    0.00000000
     atom   57 type  4   force =     0.00000000    0.00000000    0.00000000
     atom   58 type  4   force =     0.00000000    0.00000000    0.00000000
     atom   59 type  4   force =     0.00000000    0.00000000    0.00000000
     The SCF correction term to forces
     atom    1 type  1   force =     0.00000000    0.00000000    0.00000000
     atom    2 type  1   force =    -0.00000000   -0.00000000    0.00000000
     atom    3 type  1   force =     0.00000000   -0.00000000    0.00000000
     atom    4 type  1   force =     0.00000000   -0.00000000    0.00000000
     atom    5 type  1   force =    -0.00000000    0.00000000    0.00000000
     atom    6 type  1   force =    -0.00000000    0.00000000   -0.00000000
     atom    7 type  1   force =     0.00000000    0.00000000    0.00000000
     atom    8 type  1   force =     0.00000000    0.00000000    0.00000000
     atom    9 type  1   force =    -0.00000000    0.00000000    0.00000000
     atom   10 type  1   force =    -0.00000000    0.00000000    0.00000000
     atom   11 type  1   force =     0.00000000    0.00000000    0.00000000
     atom   12 type  1   force =     0.00000000   -0.00000000    0.00000000
     atom   13 type  1   force =    -0.00000000    0.00000000    0.00000000
     atom   14 type  1   force =    -0.00000000    0.00000000    0.00000000
     atom   15 type  1   force =    -0.00000000   -0.00000000    0.00000000
     atom   16 type  1   force =     0.00000000   -0.00000000    0.00000000
     atom   17 type  1   force =     0.00020972   -0.00015317    0.00011721
     atom   18 type  1   force =    -0.00023471    0.00000340    0.00007507
     atom   19 type  1   force =    -0.00021472   -0.00004831    0.00024323
     atom   20 type  1   force =     0.00022972   -0.00019047    0.00025273
     atom   21 type  1   force =     0.00009562    0.00004895    0.00005935
     atom   22 type  1   force =    -0.00031171    0.00011040    0.00013686
     atom   23 type  1   force =    -0.00003448    0.00020937    0.00026893
     atom   24 type  1   force =     0.00024327    0.00013632    0.00018075
     atom   25 type  1   force =    -0.00006561   -0.00000505    0.00010704
     atom   26 type  1   force =    -0.00008255    0.00025692    0.00016922
     atom   27 type  1   force =     0.00002430    0.00021565    0.00016243
     atom   28 type  1   force =     0.00011895   -0.00002597    0.00008247
     atom   29 type  1   force =     0.00014545   -0.00011074    0.00013315
     atom   30 type  1   force =    -0.00007430    0.00003817    0.00011561
     atom   31 type  1   force =    -0.00018463   -0.00014181    0.00011182
     atom   32 type  1   force =     0.00011011   -0.00032376    0.00019087
     atom   33 type  1   force =     0.00005515   -0.00008149   -0.00015607
     atom   34 type  1   force =    -0.00015697   -0.00002531   -0.00014402
     atom   35 type  1   force =    -0.00000022   -0.00007717    0.00003539
     atom   36 type  1   force =     0.00009387   -0.00015921   -0.00001666
     atom   37 type  1   force =    -0.00000159   -0.00001755   -0.00020964
     atom   38 type  1   force =    -0.00008705    0.00007735   -0.00004226
     atom   39 type  1   force =    -0.00003864    0.00001258    0.00014845
     atom   40 type  1   force =     0.00013110   -0.00005642   -0.00000447
     atom   41 type  1   force =    -0.00002428    0.00007830   -0.00014113
     atom   42 type  1   force =    -0.00009823    0.00009937    0.00006315
     atom   43 type  1   force =    -0.00000245    0.00012699    0.00002979
     atom   44 type  1   force =     0.00012146    0.00005204   -0.00009591
     atom   45 type  1   force =    -0.00002229    0.00001436   -0.00009513
     atom   46 type  1   force =    -0.00005256    0.00009654   -0.00009843
     atom   47 type  1   force =    -0.00002068   -0.00002694   -0.00010247
     atom   48 type  1   force =     0.00009385   -0.00009136   -0.00010246
     atom   49 type  2   force =     0.00003644    0.00003669   -0.00001421
     atom   50 type  2   force =     0.00000669    0.00001393   -0.00000927
     atom   51 type  3   force =     0.00003673    0.00004064   -0.00000684
     atom   52 type  3   force =     0.00003841    0.00000043   -0.00002167
     atom   53 type  3   force =    -0.00001273    0.00001498   -0.00004144
     atom   54 type  3   force =     0.00003259    0.00005617   -0.00003463
     atom   55 type  3   force =     0.00000132    0.00000660   -0.00001036
     atom   56 type  4   force =     0.00000255   -0.00000884    0.00000004
     atom   57 type  4   force =    -0.00001140   -0.00000320    0.00000103
     atom   58 type  4   force =     0.00000336    0.00000925   -0.00000575
     atom   59 type  4   force =    -0.00000214    0.00000049   -0.00000309

     DFT-D3 dispersion contribution to forces:
     atom    1 type  1   force =    -0.00004638   -0.00009927    0.00713588
     atom    2 type  1   force =     0.00004410   -0.00007480    0.00721170
     atom    3 type  1   force =     0.00006360   -0.00004540    0.00718142
     atom    4 type  1   force =    -0.00007619   -0.00002725    0.00716573
     atom    5 type  1   force =    -0.00003743   -0.00001300    0.00707162
     atom    6 type  1   force =     0.00013228   -0.00001789    0.00709182
     atom    7 type  1   force =     0.00003605   -0.00005068    0.00743058
     atom    8 type  1   force =    -0.00008274    0.00001619    0.00715889
     atom    9 type  1   force =     0.00005072    0.00013440    0.00709564
     atom   10 type  1   force =    -0.00001813   -0.00000786    0.00742373
     atom   11 type  1   force =    -0.00002600    0.00001524    0.00737723
     atom   12 type  1   force =    -0.00002725    0.00005226    0.00723531
     atom   13 type  1   force =    -0.00002709    0.00006454    0.00743566
     atom   14 type  1   force =     0.00000356   -0.00000761    0.00742122
     atom   15 type  1   force =     0.00001676    0.00001254    0.00745294
     atom   16 type  1   force =    -0.00002132    0.00005972    0.00720014
     atom   17 type  1   force =     0.00009275    0.00011399    0.00020340
     atom   18 type  1   force =     0.00007152    0.00046102    0.00078723
     atom   19 type  1   force =    -0.00020215    0.00012871    0.00045631
     atom   20 type  1   force =    -0.00003215   -0.00004404    0.00009005
     atom   21 type  1   force =     0.00037786   -0.00023876    0.00065094
     atom   22 type  1   force =    -0.00024096   -0.00014213    0.00075973
     atom   23 type  1   force =    -0.00020665   -0.00015150    0.00040403
     atom   24 type  1   force =     0.00025486   -0.00009140    0.00022078
     atom   25 type  1   force =    -0.00003462   -0.00019041    0.00028052
     atom   26 type  1   force =    -0.00017434   -0.00005880    0.00030370
     atom   27 type  1   force =    -0.00001951   -0.00010479   -0.00028773
     atom   28 type  1   force =     0.00013994   -0.00019480    0.00023985
     atom   29 type  1   force =    -0.00008057    0.00002722    0.00003018
     atom   30 type  1   force =     0.00003413    0.00031426    0.00035724
     atom   31 type  1   force =    -0.00003994    0.00014261    0.00031373
     atom   32 type  1   force =    -0.00003485   -0.00004136    0.00008189
     atom   33 type  1   force =     0.00054629    0.00052188   -0.00662615
     atom   34 type  1   force =    -0.00013149   -0.00018956   -0.00732292
     atom   35 type  1   force =    -0.00041980    0.00104528   -0.00566201
     atom   36 type  1   force =    -0.00042250    0.00025999   -0.00651395
     atom   37 type  1   force =    -0.00029054   -0.00001914   -0.00766232
     atom   38 type  1   force =     0.00143479   -0.00135978   -0.00981226
     atom   39 type  1   force =    -0.00092538    0.00011130   -0.00574312
     atom   40 type  1   force =     0.00032158    0.00018742   -0.00642151
     atom   41 type  1   force =     0.00005051    0.00072688   -0.00799901
     atom   42 type  1   force =    -0.00052354   -0.00074743   -0.00562297
     atom   43 type  1   force =    -0.00037705   -0.00036042   -0.00645172
     atom   44 type  1   force =     0.00025708   -0.00020580   -0.00648873
     atom   45 type  1   force =    -0.00026417   -0.00086875   -0.00636127
     atom   46 type  1   force =    -0.00007805   -0.00011451   -0.00679870
     atom   47 type  1   force =     0.00014132    0.00022667   -0.00680996
     atom   48 type  1   force =     0.00020740   -0.00062184   -0.00642089
     atom   49 type  2   force =     0.00059733    0.00002157   -0.00097078
     atom   50 type  2   force =     0.00004445   -0.00053598   -0.00249420
     atom   51 type  3   force =     0.00156283    0.00010947    0.00055503
     atom   52 type  3   force =     0.00094523    0.00011587   -0.00113185
     atom   53 type  3   force =    -0.00189234   -0.00078231   -0.00172452
     atom   54 type  3   force =    -0.00053699    0.00205387   -0.00165596
     atom   55 type  3   force =     0.00019805   -0.00008429   -0.00231865
     atom   56 type  4   force =     0.00013723   -0.00003928   -0.00018203
     atom   57 type  4   force =    -0.00002361    0.00000419   -0.00062133
     atom   58 type  4   force =    -0.00037918    0.00018899   -0.00072059
     atom   59 type  4   force =    -0.00006934    0.00041474   -0.00099898

     Total force =     0.003459     Total SCF correction =     0.001298
     SCF correction compared to forces is large: reduce conv_thr to get better values
     Energy error            =      3.1E-05 Ry
     Gradient error          =      9.5E-04 Ry/Bohr

     bfgs converged in  80 scf cycles and  79 bfgs steps
     (criteria: energy <  1.0E-04 Ry, force <  1.0E-03 Ry/Bohr)

     End of BFGS Geometry Optimization

     Final energy             =   -3269.4275306212 Ry

     File ./pwscf.bfgs deleted, as requested
Begin final coordinates

ATOMIC_POSITIONS (angstrom)
Pt            1.3858852100        0.8001412000        9.9263750900    0   0   0
Pt            4.1577136200        0.7998607100        9.9260138200    0   0   0
Pt            6.9297207100        0.7998607100        9.9260138200    0   0   0
Pt            9.7015491200        0.8001412000        9.9263750900    0   0   0
Pt            2.7715565100        3.2007552600        9.9260138200    0   0   0
Pt            5.5437171600        3.2006666000        9.9255302800    0   0   0
Pt            8.3158778200        3.2007552600        9.9260138200    0   0   0
Pt           11.0874343300        3.2007850400        9.9263714800    0   0   0
Pt            4.1575600500        5.6013838200        9.9260138200    0   0   0
Pt            6.9298742800        5.6013838200        9.9260138200    0   0   0
Pt            9.7017065700        5.6012829000        9.9263544800    0   0   0
Pt           12.4731620900        5.6012829000        9.9263544800    0   0   0
Pt            5.5437171600        8.0017174000        9.9263750900    0   0   0
Pt            8.3156783200        8.0016072700        9.9263714800    0   0   0
Pt           11.0874343300        8.0014337800        9.9263544800    0   0   0
Pt           13.8591903400        8.0016072700        9.9263714800    0   0   0
Pt            0.0117314302        1.6108680710       12.2926697094
Pt            2.7702179459        1.6109666545       12.2739049953
Pt            5.5310185210        1.6087886905       12.2847873341
Pt            8.3175830016        1.5988762514       12.2610971600
Pt            1.3878209188        4.0012671234       12.2656324127
Pt            4.1460500224        3.9960435525       12.2957258130
Pt            6.9233836855        3.9977904195       12.2579080567
Pt            9.7018080556        3.9988169446       12.2580747174
Pt            2.7707618734        6.3902619573       12.2825738314
Pt            5.5354120233        6.3997964600       12.2582633471
Pt            8.3115400680        6.4013244822       12.2564887064
Pt           11.0904078333        6.4012121744       12.2569792851
Pt            4.1552709611        8.8049983206       12.2621726078
Pt            6.9239682758        8.8069270751       12.2564171478
Pt            9.7026943326        8.8072204179       12.2537004701
Pt           12.4761235720        8.8030392265       12.2617260618
Pt           -0.0058823063        0.0036626749       14.6029949988
Pt            2.7578893837       -0.0441834417       14.5656706176
Pt            5.5527817701       -0.0248761936       14.5990261979
Pt            8.3167504956        0.0054999306       14.6099836536
Pt            1.3847074033        2.4288867320       14.6859353819
Pt            4.1784492029        2.3460155730       14.6943823765
Pt            6.9464627070        2.3976421670       14.5943745181
Pt            9.6932958627        2.4101866889       14.6047660242
Pt            2.7471896661        4.8465682958       14.6916519919
Pt            5.5556258193        4.8096254346       14.5825353850
Pt            8.3051687709        4.8060406708       14.5966803376
Pt           11.0476766727        4.8267185478       14.5853479446
Pt            4.1556915262        7.2190827937       14.6012105816
Pt            6.9171627301        7.1962292370       14.5939004251
Pt            9.6873312741        7.1982677280       14.5920963197
Pt           12.4588829380        7.2195289081       14.6026171132
O             3.8496536320        4.3093327623       17.3307103454
O             6.1491819404        1.6467530842       17.8406362280
C             4.3379011417        3.0502196563       17.2568950081
C             3.3705084181        2.1281789880       16.8040073247
C             2.0906922608        2.8648738811       16.6472000168
C             2.5420584585        4.3032540401       16.7172474183
C             5.6958732312        2.7853575304       17.7546845201
H             3.4295420781        1.0711615115       17.0543040440
H             1.2380567002        2.5610422289       17.2675357826
H             1.9154313913        5.0442246807       17.2188194708
H             6.2663077277        3.6890944822       18.0655407490
End final coordinates



     Writing all to output data dir ./pwscf.save/

     init_run     :    576.18s CPU     31.65s WALL (       1 calls)
     electrons    : 998043.13s CPU  46803.03s WALL (      80 calls)
     update_pot   :   2201.05s CPU    130.56s WALL (      79 calls)
     forces       :   7697.96s CPU    531.57s WALL (      80 calls)
     force_dftd3  :     64.38s CPU     60.24s WALL (      80 calls)

     Called by init_run:
     wfcinit      :    387.08s CPU     17.79s WALL (       1 calls)
     potinit      :     54.93s CPU      3.68s WALL (       1 calls)
     hinit0       :     95.85s CPU      7.59s WALL (       1 calls)

     Called by electrons:
     c_bands      : 755281.23s CPU  33161.69s WALL (    1230 calls)
     sum_band     : 189095.78s CPU   9510.50s WALL (    1230 calls)
     v_of_rho     :   5488.83s CPU    954.46s WALL (    1302 calls)
     newd         :  49975.52s CPU   3032.04s WALL (    1302 calls)
     mix_rho      :    853.19s CPU    187.10s WALL (    1230 calls)
     energy_dftd3 :     48.56s CPU     48.57s WALL (      80 calls)

     Called by c_bands:
     init_us_2    :    892.14s CPU     43.24s WALL (    2461 calls)
     init_us_2:cp :    891.67s CPU     43.23s WALL (    2461 calls)
     regterg      : 753006.43s CPU  33056.16s WALL (    1230 calls)

     Called by *egterg:
     rdiaghg      :   7309.54s CPU    506.98s WALL (    4498 calls)
     h_psi        : 710368.15s CPU  30104.20s WALL (    4586 calls)
     s_psi        :   8809.00s CPU    319.78s WALL (    4586 calls)
     g_psi        :    256.56s CPU     10.69s WALL (    3355 calls)

     Called by h_psi:
     h_psi:calbec :   9892.36s CPU    382.82s WALL (    4586 calls)
     vloc_psi     : 691045.94s CPU  29363.50s WALL (    4586 calls)
     add_vuspsi   :   8821.85s CPU    326.42s WALL (    4586 calls)

     General routines
     calbec       :  15059.19s CPU    577.74s WALL (    6136 calls)
     fft          :   2462.66s CPU    131.41s WALL (   14969 calls)
     ffts         :    177.21s CPU     10.34s WALL (    2532 calls)
     fftw         : 774965.18s CPU  29689.77s WALL ( 1103330 calls)
     interpolate  :    590.32s CPU     72.05s WALL (    1302 calls)

     Parallel routines

     PWSCF        :  11d17h 0m CPU     13h15m WALL


   This run was terminated on:   3:28:50   7Nov2024            

=------------------------------------------------------------------------------=
   JOB DONE.
=------------------------------------------------------------------------------=
