61
Lattice="11.087434113345987 0.0 0.0 5.543717056672993 9.60199512801046 0.0 0.0 0.0 24.526424302659752" Properties=species:S:1:pos:R:3:forces:R:3 energy=-44515.9344591739 free_energy=-44515.9344591739 pbc="T T T"
Pt       1.38588521       0.80014120       9.92637509      -0.03944458       0.04085740       0.06900944
Pt       4.15771362       0.79986071       9.92601382       0.04972848       0.02808442       0.02168134
Pt       6.92972071       0.79986071       9.92601382      -0.02191660       0.01072613      -0.01814607
Pt       9.70154912       0.80014120       9.92637509       0.02716782      -0.01077267      -0.07883928
Pt       2.77155651       3.20075526       9.92601382       0.04533163       0.00334578       0.14045911
Pt       5.54371716       3.20066660       9.92553028      -0.01369575      -0.04068437       0.05034374
Pt       8.31587782       3.20075526       9.92601382       0.00347330      -0.01809620      -0.02529014
Pt      11.08743433       3.20078504       9.92637148      -0.00344425      -0.08335259       0.01823478
Pt       4.15756005       5.60138382       9.92601382      -0.03035753      -0.01792213       0.09964079
Pt       6.92987428       5.60138382       9.92601382      -0.00538878      -0.00618350      -0.02613758
Pt       9.70170657       5.60128290       9.92635448       0.00639305      -0.00727828      -0.02231589
Pt      12.47316209       5.60128290       9.92635448       0.05865920       0.03246455       0.01830086
Pt       5.54371716       8.00171740       9.92637509      -0.01313268       0.00342805      -0.01218214
Pt       8.31567832       8.00160727       9.92637148       0.00650823      -0.00915004      -0.03893447
Pt      11.08743433       8.00143378       9.92635448       0.01616221      -0.00281921      -0.03712493
Pt      13.85919034       8.00160727       9.92637148       0.01561611       0.00771511      -0.08495233
Pt       0.02730769       1.60046737      12.29469959      -0.00765572       0.00140357       0.00539906
Pt       2.78373638       1.60260556      12.28029323      -0.01204125      -0.00362191       0.00463287
Pt       5.54237761       1.60263981      12.28784642      -0.00850290       0.00060832       0.01126040
Pt       8.33329694       1.58996851      12.25776741      -0.00127270       0.00158817       0.00758527
Pt       1.40248363       3.99183355      12.26809105      -0.01166381      -0.00083715       0.01641392
Pt       4.15789493       3.98623315      12.30486734       0.00331184       0.00889190       0.00654191
Pt       6.93599366       3.98882490      12.25696373       0.00711476       0.01548987      -0.00308275
Pt       9.71671263       3.98831379      12.25920439      -0.00350441       0.00251068      -0.00139122
Pt       2.78618885       6.38043519      12.28577248      -0.00144830       0.00664810       0.00927577
Pt       5.54958712       6.38974023      12.25994425      -0.00513938       0.01899557      -0.01002576
Pt       8.32734402       6.39064659      12.25701750      -0.01293008       0.01305375       0.01107426
Pt      11.10623782       6.39123312      12.25810576      -0.00980644       0.01999110       0.00352524
Pt       4.17070985       8.79619205      12.26502424      -0.00388159       0.00618453      -0.01038186
Pt       6.94071240       8.79821040      12.25724319      -0.01450051       0.00209339       0.00145756
Pt       9.71744556       8.79888923      12.25361024      -0.00440841      -0.00498897      -0.00171595
Pt      12.49081614       8.79602522      12.25942658       0.00513218      -0.00523965      -0.00526048
Pt       0.02424147      -0.01435510      14.60652724       0.00041112       0.00419861      -0.00279170
Pt       2.79247281      -0.05646940      14.57126571      -0.01741794      -0.00697823       0.00130869
Pt       5.58177505      -0.03698894      14.59750257      -0.00793982       0.00010079       0.00608966
Pt       8.34478717      -0.00883279      14.61358878       0.00465473      -0.00526948      -0.00683039
Pt       1.41656175       2.40724890      14.69415372       0.00729936       0.00238855      -0.00540600
Pt       4.21773478       2.33773067      14.71296256      -0.01296093      -0.00597576      -0.00212836
Pt       6.97686290       2.38262449      14.59228775       0.00319177      -0.00312338       0.00407006
Pt       9.72122572       2.39262875      14.60735682       0.00088677      -0.01124446       0.00055690
Pt       2.77360066       4.83173855      14.70598248      -0.00401401      -0.00777424      -0.01736780
Pt       5.58300027       4.79614857      14.58692480      -0.00708673       0.01222122       0.00020415
Pt       8.33267609       4.78839565      14.59804453      -0.00630255       0.00074665       0.00178717
Pt      11.07555926       4.80899461      14.58650748       0.00089757       0.00071528      -0.01393384
Pt       4.18426798       7.20355821      14.60601249      -0.00398624       0.00002160      -0.00441870
Pt       6.94775559       7.18180720      14.59441027      -0.00084924      -0.00184811       0.00568908
Pt       9.71891037       7.18472519      14.59382664      -0.01377494      -0.00816505      -0.00670775
Pt      12.48869472       7.20604876      14.60398622      -0.00594568      -0.00233508      -0.00158406
O        3.81884762       4.32297553      17.38129035      -0.00453080      -0.01922002      -0.01647383
O        6.10931645       1.52912492      17.87146979      -0.00891376      -0.00571325      -0.00360186
C        4.31977427       3.08467363      17.34931653       0.02097635      -0.00091583      -0.00569191
C        5.69236013       2.87451808      17.90711750       0.00614005       0.00279916       0.00924826
C        3.40422698       2.14137992      16.85085466       0.00779147       0.00600147       0.00140151
C        2.10440326       2.84423949      16.65499335       0.00028616      -0.00442384      -0.01513223
C        2.51740021       4.29314883      16.71609990      -0.01171395      -0.00850598      -0.01244465
H        6.38476808       3.56677415      17.38923076       0.00145730       0.01552509       0.00484036
H        5.67249513       3.18732015      18.96604676      -0.00554433       0.00685199      -0.01734723
H        3.49485510       1.08446659      17.09525887       0.01655148       0.02331502      -0.00158457
H        1.25629603       2.53153871      17.27897602       0.00059495      -0.00464290      -0.00835891
H        1.86569714       5.01643016      17.21167805       0.00184477       0.00314754      -0.00755853
H        6.40182615       1.32160398      16.95108891       0.01753492       0.00496891      -0.00488870
