59
Lattice="11.087434113345987 0.0 0.0 5.543717056672993 9.60199512801046 0.0 0.0 0.0 24.526424302659752" Properties=species:S:1:pos:R:3:forces:R:3 energy=-44482.82377817304 free_energy=-44482.82377817304 pbc="T T T"
Pt       1.38588521       0.80014120       9.92637509      -0.04236612       0.04637602       0.05426133
Pt       4.15771362       0.79986071       9.92601382       0.04319685       0.03217067       0.01005044
Pt       6.92972071       0.79986071       9.92601382      -0.02814227       0.01130488      -0.02364669
Pt       9.70154912       0.80014120       9.92637509       0.00920506       0.00559755      -0.06906883
Pt       2.77155651       3.20075526       9.92601382       0.03129984       0.01165070       0.11616604
Pt       5.54371716       3.20066660       9.92553028      -0.02224364      -0.03867196       0.03764943
Pt       8.31587782       3.20075526       9.92601382      -0.00572019      -0.01496382      -0.02063439
Pt      11.08743433       3.20078504       9.92637148      -0.00740786      -0.07609154       0.01128869
Pt       4.15756005       5.60138382       9.92601382      -0.04107389      -0.00742689       0.07165047
Pt       6.92987428       5.60138382       9.92601382      -0.01274599      -0.00661828      -0.01885493
Pt       9.70170657       5.60128290       9.92635448      -0.00208696       0.00032036      -0.02752854
Pt      12.47316209       5.60128290       9.92635448       0.04953230       0.03601473       0.01359908
Pt       5.54371716       8.00171740       9.92637509      -0.01698625       0.00794471      -0.02164817
Pt       8.31567832       8.00160727       9.92637148      -0.00113000       0.00416442      -0.03621810
Pt      11.08743433       8.00143378       9.92635448       0.00929274       0.00454520      -0.03478240
Pt      13.85919034       8.00160727       9.92637148      -0.00218055       0.01027798      -0.08714806
Pt       0.01173143       1.61086807      12.29266971       0.00484062      -0.00698080       0.01145041
Pt       2.77021795       1.61096665      12.27390500      -0.00329744      -0.00180569       0.01518185
Pt       5.53101852       1.60878869      12.28478733      -0.00157660       0.00220575       0.00071734
Pt       8.31758300       1.59887625      12.26109716      -0.00399318       0.00315989      -0.00470923
Pt       1.38782092       4.00126712      12.26563241      -0.00433437       0.00806015       0.00924054
Pt       4.14605002       3.99604355      12.29572581      -0.00221963       0.00066669       0.00464701
Pt       6.92338369       3.99779042      12.25790806      -0.00431508      -0.00206460      -0.00009822
Pt       9.70180806       3.99881694      12.25807472       0.00216770      -0.00110686       0.00298839
Pt       2.77076187       6.39026196      12.28257383      -0.00186765      -0.00077622       0.00646684
Pt       5.53541202       6.39979646      12.25826335      -0.01032504       0.00163188       0.00289609
Pt       8.31154007       6.40132448      12.25648871      -0.00257445       0.00071322       0.00301359
Pt      11.09040783       6.40121217      12.25697929      -0.00275365       0.00479511       0.00099090
Pt       4.15527096       8.80499832      12.26217261       0.00353501       0.00708776      -0.00159845
Pt       6.92396828       8.80692708      12.25641715       0.00240218       0.00797222      -0.01206259
Pt       9.70269433       8.80722042      12.25370047       0.00245335      -0.00431174      -0.00066746
Pt      12.47612357       8.80303923      12.26172606      -0.00668461       0.01141981      -0.02095603
Pt      -0.00588231       0.00366267      14.60299500       0.00872992      -0.01594984       0.00245078
Pt       2.75788938      -0.04418344      14.56567062       0.00798019      -0.00526819       0.00014630
Pt       5.55278177      -0.02487619      14.59902620      -0.00076825       0.00005091      -0.00103898
Pt       8.31675050       0.00549993      14.60998365      -0.00111072      -0.00401632      -0.00392530
Pt       1.38470740       2.42888673      14.68593538      -0.00601818      -0.00970797       0.00402043
Pt       4.17844920       2.34601557      14.69438238       0.00777244      -0.00477402       0.00563072
Pt       6.94646271       2.39764217      14.59437452       0.00341751       0.00169204       0.00681754
Pt       9.69329586       2.41018669      14.60476602       0.00226926      -0.00583640      -0.01197877
Pt       2.74718967       4.84656830      14.69165199      -0.00845250      -0.00423744       0.00861397
Pt       5.55562582       4.80962543      14.58253538       0.00372167       0.00553404      -0.00787657
Pt       8.30516877       4.80604067      14.59668034      -0.00275082      -0.01353814      -0.00459842
Pt      11.04767667       4.82671855      14.58534794       0.01636970      -0.01221274      -0.00634008
Pt       4.15569153       7.21908279      14.60121058      -0.00130895      -0.00979359       0.00243509
Pt       6.91716273       7.19622924      14.59390043       0.01037260      -0.00124827      -0.00507433
Pt       9.68733127       7.19826773      14.59209632       0.00965269       0.00983087       0.00780227
Pt      12.45888294       7.21952891      14.60261711       0.01539371      -0.01074747      -0.01078012
O        3.84965363       4.30933276      17.33071035      -0.00567108       0.00278270       0.01122698
O        6.14918194       1.64675308      17.84063623       0.00629509       0.02222487      -0.00969923
C        4.33790114       3.05021966      17.25689501       0.00198232       0.00828332       0.00572096
C        3.37050842       2.12817899      16.80400732       0.01092513      -0.00549933       0.00828898
C        2.09069226       2.86487388      16.64720002       0.00071477      -0.01611593       0.00683528
C        2.54205846       4.30325404      16.71724742      -0.00735644       0.00465575      -0.00277653
C        5.69587323       2.78535753      17.75468452      -0.00185557       0.00788069      -0.00188230
H        3.42954208       1.07116151      17.05430404       0.02454684      -0.00966889       0.00821159
H        1.23805670       2.56104223      17.26753578      -0.00878135      -0.00965938       0.00924929
H        1.91543139       5.04422468      17.21881947      -0.00744823       0.00251222      -0.01276398
H        6.26630773       3.68909448      18.06554075      -0.01052173       0.01556520      -0.00135189
