70
Lattice="11.087434113345987 0.0 0.0 5.543717056672993 9.60199512801046 0.0 0.0 0.0 24.526424302659752" Properties=species:S:1:pos:R:3:forces:R:3 energy=-46272.43960856583 free_energy=-46272.43960856583 pbc="T T T"
Pt       1.38588521       0.80014120       9.92637509      -0.00538055       0.00916444      -0.04622021
Pt       4.15771362       0.79986071       9.92601382      -0.00150050       0.02936508      -0.04453639
Pt       6.92972071       0.79986071       9.92601382      -0.01321496       0.00207488      -0.04484158
Pt       9.70154912       0.80014120       9.92637509      -0.01259198       0.01136402      -0.05121740
Pt       2.77155651       3.20075526       9.92601382       0.00328098       0.00353887      -0.05071244
Pt       5.54371716       3.20066660       9.92553028      -0.05449299       0.02277303       0.03530845
Pt       8.31587782       3.20075526       9.92601382       0.03558664       0.01514457       0.01819801
Pt      11.08743433       3.20078504       9.92637148      -0.02213668       0.01192940      -0.04082012
Pt       4.15756005       5.60138382       9.92601382       0.00068288      -0.06170339       0.05915388
Pt       6.92987428       5.60138382       9.92601382      -0.00414925      -0.01404722       0.08526961
Pt       9.70170657       5.60128290       9.92635448      -0.01299178      -0.03298880       0.08157442
Pt      12.47316209       5.60128290       9.92635448      -0.01540117       0.01374717       0.09483385
Pt       5.54371716       8.00171740       9.92637509      -0.01140336       0.01831320      -0.09017964
Pt       8.31567832       8.00160727       9.92637148      -0.00715744      -0.00687076      -0.09305157
Pt      11.08743433       8.00143378       9.92635448       0.01697571      -0.02757714       0.05890834
Pt      13.85919034       8.00160727       9.92637148      -0.04531158      -0.02297332       0.05229727
Pt      -0.01575013       1.60591806      12.26006354      -0.00148507       0.01802549      -0.00636682
Pt       2.75837042       1.60662568      12.26230336       0.00507356       0.00824167      -0.00620484
Pt       5.53015828       1.60796691      12.25772565       0.00931151       0.00066592       0.00281279
Pt       8.29929631       1.60348336      12.25730892       0.00674786      -0.00177483       0.01474631
Pt       1.36994851       4.00307149      12.26218422       0.00869084       0.00776293       0.00652212
Pt       4.15521976       4.00768243      12.29253316      -0.00075488       0.01183736       0.00429040
Pt       6.91341094       4.00068310      12.27856827       0.01108994       0.00444030      -0.00289121
Pt       9.67254235       4.00756047      12.29049931       0.00671058       0.00727314      -0.00266649
Pt       2.75163473       6.39911041      12.27982822      -0.00567211       0.00300331       0.00418987
Pt       5.52824279       6.38894834      12.26585518       0.00038824      -0.00026791      -0.01482858
Pt       8.29943931       6.38555390      12.27381999       0.01361888      -0.00091223       0.00075822
Pt      11.07771654       6.40083326      12.28771493       0.00923540      -0.00243483       0.01226622
Pt       4.14202510       8.79966110      12.25233315      -0.00347999       0.00089552      -0.00525045
Pt       6.91534737       8.80347475      12.24910880       0.00738112       0.00887905       0.00185685
Pt       9.68431007       8.79688868      12.25046645       0.01237575      -0.00178280       0.00171493
Pt      12.45911147       8.78842889      12.27454067       0.00221449      -0.00176352      -0.00402840
Pt      -0.02233791       0.00968024      14.59195982      -0.00841059       0.01064617       0.01049473
Pt       2.74533266       0.01017626      14.59594507      -0.00018152      -0.00889422       0.00102510
Pt       5.50213516       0.00716201      14.55832317      -0.00714715       0.00487687      -0.00570348
Pt       8.29826776       0.00361090      14.58580532      -0.00012727      -0.00203143       0.00619302
Pt       1.35864259       2.40002474      14.60775792       0.00273154       0.00089423       0.00148893
Pt       4.12351520       2.39627960      14.60557558       0.00528105       0.01126452      -0.00011313
Pt       6.90443400       2.36319953      14.60146582      -0.01856748      -0.00027537      -0.00515583
Pt       9.68214413       2.38628813      14.60267044       0.00401786      -0.00894153      -0.00695535
Pt       2.73959559       4.79209121      14.60328688      -0.00235333      -0.00291666       0.00284107
Pt       5.51111179       4.81349023      14.71566167      -0.01350883       0.00714818       0.00508873
Pt       8.26759568       4.78056189      14.72706606       0.00057464      -0.00014964       0.00042449
Pt      11.05146319       4.78264830      14.60704511       0.00196664       0.00286292      -0.00428963
Pt       4.13743387       7.21709732      14.58061609      -0.00359929       0.00042475       0.01188827
Pt       6.90367213       7.24534327      14.56108094       0.00693735      -0.00069214       0.01017720
Pt       9.65881781       7.20375964      14.59079505      -0.01399451       0.00064766      -0.01419275
Pt      12.43636991       7.19489308      14.73243215       0.00186508      -0.00157480      -0.00467632
O        5.47209173       3.98806497      17.55052380       0.00269914      -0.00324679      -0.00504476
O        7.07451057       1.70010618      19.69061101       0.01305632       0.01433133      -0.00597499
O        5.73742412      -1.50177402      17.34731072      -0.00507202      -0.00285547       0.00002597
O        4.25181707       0.78816141      17.65939646       0.00725437       0.00023526      -0.00742380
C        5.98788951       2.00446354      18.81438383       0.01141750      -0.00721991       0.00383609
C        6.44284170       3.10483445      17.90883441       0.01011472      -0.00522937      -0.00399755
C        5.42969681       0.78324461      18.02591525       0.01548987      -0.00928477       0.00061424
C        6.32281412      -0.34583401      17.78744522      -0.00415027      -0.01423671       0.01035152
C        7.68353122       3.46297766      17.46205609      -0.00565103      -0.00752613       0.00656917
C        7.71094402      -0.49741328      17.82752585       0.00658845       0.00457194      -0.00261867
C        7.56656553       4.74828787      16.77503558       0.01821190       0.00247854      -0.01241611
C        6.08591190       4.99185566      16.73834077       0.00101121      -0.00525996      -0.01009467
C        7.99783390      -1.78016027      17.36398567       0.01111899       0.00447835       0.00125110
C        6.76414577      -2.37756002      16.96215212       0.00951668      -0.01896703       0.00650515
H        5.11027954       2.39037511      19.36299894      -0.00838668       0.00022600      -0.00730656
H        8.60703345       2.94027431      17.68321958       0.00564254       0.00192216      -0.00643804
H        8.41413924       0.26034128      18.15087005       0.00965912      -0.00808329       0.00191599
H        8.20118173       5.57644364      17.11776416       0.00569422       0.01324452      -0.01209318
H        5.71743369       5.97244652      17.05553773      -0.01443314       0.00327893      -0.00568959
H        8.97020572      -2.25761452      17.29100340       0.00344116      -0.00313315       0.00599350
H        6.77975570       0.98706982      20.29071201       0.01351603      -0.00819051       0.01100535
H        6.49398573      -3.42510701      17.11288145       0.00553584       0.00183371      -0.00839105
