72
Lattice="11.087434113345987 0.0 0.0 5.543717056672993 9.60199512801046 0.0 0.0 0.0 24.526424302659752" Properties=species:S:1:pos:R:3:forces:R:3 energy=-46304.888616876335 free_energy=-46304.888616876335 pbc="T T T"
Pt       1.38588521       0.80014120       9.92637509      -0.00469818       0.00932385       0.00219495
Pt       4.15771362       0.79986071       9.92601382      -0.02077554      -0.02751517      -0.01312188
Pt       6.92972071       0.79986071       9.92601382       0.00658691      -0.00031753      -0.02580051
Pt       9.70154912       0.80014120       9.92637509      -0.00537283      -0.01501858      -0.02790187
Pt       2.77155651       3.20075526       9.92601382      -0.02440954       0.01927556       0.01879708
Pt       5.54371716       3.20066660       9.92553028      -0.03119879      -0.00343679      -0.04944026
Pt       8.31587782       3.20075526       9.92601382       0.00564460      -0.01784500      -0.07716806
Pt      11.08743433       3.20078504       9.92637148       0.02908895       0.04506193       0.08331506
Pt       4.15756005       5.60138382       9.92601382      -0.02531045      -0.00932771       0.00235025
Pt       6.92987428       5.60138382       9.92601382      -0.01769819       0.01740483      -0.07586297
Pt       9.70170657       5.60128290       9.92635448       0.04131660      -0.02208989       0.02657775
Pt      12.47316209       5.60128290       9.92635448      -0.01948511      -0.03862311       0.11089631
Pt       5.54371716       8.00171740       9.92637509      -0.01382122       0.00113026      -0.00826507
Pt       8.31567832       8.00160727       9.92637148       0.00552916       0.01429019      -0.01558217
Pt      11.08743433       8.00143378       9.92635448      -0.00848490       0.00044480      -0.02549120
Pt      13.85919034       8.00160727       9.92637148      -0.00207719      -0.01436784       0.00579887
Pt      -0.00645432       1.59991718      12.26169752       0.00186919       0.00171133       0.00456371
Pt       2.76200221       1.59793039      12.26121279       0.01990548       0.01513094       0.00943055
Pt       5.53198509       1.59154727      12.25990622      -0.00037178       0.02316307       0.00637916
Pt       8.30989798       1.59696609      12.25760299      -0.01499236      -0.00800667       0.00807198
Pt       1.37222784       4.00481334      12.30124965       0.01562254       0.00158123       0.00893998
Pt       4.14288566       3.99576566      12.26619267       0.00946860      -0.01119664       0.00417521
Pt       6.91803200       3.99195191      12.24204391      -0.01203688      -0.01456221       0.00092123
Pt       9.70818932       4.00071466      12.27149441      -0.00998102       0.00302490      -0.00120688
Pt       2.76317086       6.39089613      12.26961426      -0.00482519      -0.01181011       0.00375484
Pt       5.53527794       6.39744482      12.25891592      -0.00845044      -0.00848387       0.00357975
Pt       8.31285522       6.40161123      12.25195863      -0.00050985      -0.01635324       0.00154395
Pt      11.08266510       6.38765857      12.28010953       0.00853915       0.00297425      -0.00073714
Pt       4.15097484       8.79701476      12.26371841      -0.01443212      -0.00035481       0.00077493
Pt       6.92135321       8.79895253      12.26228528       0.00565206       0.00521960       0.00803624
Pt       9.69523216       8.79260325      12.26945218       0.01514817       0.00720886      -0.00298222
Pt      12.46441086       8.79462933      12.25990754       0.00675660       0.00909399       0.00103127
Pt      -0.01195931      -0.01293112      14.60420421       0.00982907       0.00290072       0.00507150
Pt       2.75891251      -0.01078167      14.60264395       0.00405206       0.00592819       0.00264284
Pt       5.53335445      -0.00728128      14.60702698       0.01105266      -0.00328124       0.00897392
Pt       8.30483454      -0.01075175      14.60342136      -0.00706513       0.01041168      -0.00982624
Pt       1.37796850       2.37260231      14.59976440       0.00478765       0.01043894       0.00632080
Pt       4.15156980       2.38255370      14.60403993       0.00209648       0.00101199       0.00143056
Pt       6.91254645       2.38290296      14.59571470       0.00842268      -0.00408085      -0.00429091
Pt       9.67840574       2.37457698      14.58592647       0.00438964      -0.00889705       0.00827124
Pt       2.78343378       4.78831371      14.63463094       0.00476863       0.00455162       0.01156122
Pt       5.53714082       4.79189483      14.59232130       0.00195969      -0.00767397       0.00183860
Pt       8.27714654       4.79236631      14.53514610      -0.00243792      -0.00691987       0.00598810
Pt      11.06746690       4.78956271      14.72817235       0.01264366      -0.00647918       0.00533992
Pt       4.15597292       7.19685944      14.60290005      -0.01002345      -0.01101923       0.00173344
Pt       6.91363112       7.19481544      14.59903447       0.00425749       0.00642467       0.00845173
Pt       9.68154191       7.20154223      14.60692079       0.01724670       0.00662882      -0.00437910
Pt      12.47659835       7.20911785      14.58820414       0.00860985      -0.00535664       0.00627915
O        7.59487325       2.63585125      18.03390715      -0.01633010       0.00846304      -0.01588710
O        6.66426883       3.97485055      20.13227604       0.00458813       0.00806118      -0.01609691
O        9.87245509       3.93059955      17.31375189       0.00451100       0.00841753       0.00872915
O        4.48495662       3.62171391      18.11053813       0.01140747       0.01514457      -0.00908679
C        7.51337690       4.03588641      17.83436496      -0.00299611       0.00559009      -0.00629766
C        6.57391252       4.67037559      18.89919596       0.00289583       0.01406908      -0.00052116
C        8.84870935       4.69205335      17.73803667       0.00736852       0.00523939      -0.00357255
C        5.17813980       4.78455320      18.37388794      -0.00612720       0.01015791       0.00571428
C        9.20364860       6.04020949      17.76058331      -0.00434594      -0.00135600       0.01150337
C        4.39528291       5.86887577      18.08797468      -0.02291881      -0.00089012       0.00072454
C       10.51220956       6.12468496      17.28349429      -0.01095547      -0.00993963       0.00089680
C        3.14191895       5.36164336      17.63989306       0.00434542      -0.01959309      -0.02374517
C       10.92363529       4.80031048      16.90323529       0.00495683       0.00317608       0.01679033
C        3.24830798       3.98618782      17.66536088       0.00996585       0.01795273       0.01629488
H        7.05635556       4.24776716      16.83262321       0.00183037      -0.00076002       0.00691113
H        6.90004238       5.70282744      19.09381512       0.00274954       0.00081838       0.00160000
H        8.56481267       6.86950282      18.04371252      -0.00905723      -0.01578477       0.00401761
H        4.67407030       6.91157328      18.19786872       0.00707208      -0.00481568      -0.00815785
H        7.42051296       2.19345541      17.16888792       0.00219752       0.00138068      -0.01639130
H        6.71443602       3.02183219      19.89864636       0.01436218      -0.00040803      -0.00554176
H       11.14555890       7.00767857      17.24638728      -0.01473885      -0.02133296       0.00081633
H        2.27197423       5.95030617      17.37549100       0.00484627       0.00835686       0.00381295
H       11.88865753       4.37701069      17.17698362      -0.00412713       0.00083972      -0.00410759
H        2.56786595       3.16558697      17.46230100       0.00171415       0.01589405      -0.01138536
