60
Lattice="11.087434113345987 0.0 0.0 5.543717056672993 9.60199512801046 0.0 0.0 0.0 24.526424302659752" Properties=species:S:1:pos:R:3:forces:R:3 energy=-44075.776114139226 free_energy=-44075.776114139226 pbc="T T T"
Pt       1.38588521       0.80014120       9.92637509      -0.03485439       0.03382183       0.06245338
Pt       4.15771362       0.79986071       9.92601382       0.04937341       0.02825540       0.03287644
Pt       6.92972071       0.79986071       9.92601382      -0.04245508       0.01231996      -0.00825170
Pt       9.70154912       0.80014120       9.92637509       0.01648746      -0.00943363      -0.08321350
Pt       2.77155651       3.20075526       9.92601382       0.04337965      -0.00332187       0.13674952
Pt       5.54371716       3.20066660       9.92553028      -0.01979929      -0.05164755       0.05440660
Pt       8.31587782       3.20075526       9.92601382      -0.00870421      -0.02018933      -0.02798903
Pt      11.08743433       3.20078504       9.92637148      -0.00361266      -0.08484846       0.00720912
Pt       4.15756005       5.60138382       9.92601382      -0.03798728      -0.02945919       0.09548229
Pt       6.92987428       5.60138382       9.92601382      -0.01163758      -0.01919251      -0.01712766
Pt       9.70170657       5.60128290       9.92635448      -0.00307967      -0.01229964      -0.02285634
Pt      12.47316209       5.60128290       9.92635448       0.05829205       0.02370120       0.02381716
Pt       5.54371716       8.00171740       9.92637509      -0.01001959      -0.00744334      -0.02474250
Pt       8.31567832       8.00160727       9.92637148      -0.00125496      -0.01182913      -0.03613634
Pt      11.08743433       8.00143378       9.92635448       0.00967635      -0.00635474      -0.03606821
Pt      13.85919034       8.00160727       9.92637148       0.00451023      -0.01270151      -0.08557737
Pt       0.01787888       1.58940976      12.29254099      -0.00448735       0.00143236       0.00064458
Pt       2.77613283       1.59052617      12.27890774      -0.00356792       0.00581609      -0.00976608
Pt       5.53440186       1.59111675      12.29144481      -0.00306527       0.00460922      -0.00620407
Pt       8.32278362       1.58023625      12.25907071      -0.00111149       0.00335246       0.01158873
Pt       1.39341752       3.98045793      12.26689322       0.00346250       0.00836971      -0.00345042
Pt       4.15051525       3.97548144      12.30371602      -0.00496994       0.00992060      -0.00534455
Pt       6.92823592       3.97897052      12.25778594      -0.00269374       0.00363811       0.00902971
Pt       9.70733054       3.97804917      12.25761832      -0.00322468       0.01040783      -0.00080244
Pt       2.77736142       6.36825611      12.28748699       0.00125393       0.00778401      -0.00801387
Pt       5.54082870       6.38064081      12.25900155       0.00187433       0.00475551      -0.00391425
Pt       8.31782194       6.38245755      12.25782404      -0.00267138      -0.00229934      -0.00177175
Pt      11.09708105       6.38216554      12.25805772      -0.00075385       0.00647275      -0.00890990
Pt       4.16139704       8.78467766      12.26268650       0.00213402       0.00759375       0.00640333
Pt       6.93146504       8.78813103      12.25642379      -0.00006762      -0.00379238      -0.00518926
Pt       9.71014860       8.78817022      12.25423231      -0.00432614       0.00616165      -0.00042706
Pt      12.48315928       8.78465154      12.25919341      -0.00775290       0.00402429       0.00596804
Pt       0.01027144      -0.03574759      14.60323241      -0.00067003      -0.00124184       0.00913564
Pt       2.77885365      -0.07758229      14.57034451      -0.00193450      -0.00676689       0.00135857
Pt       5.56915673      -0.05606340      14.60199217       0.00072119       0.00304187      -0.01704899
Pt       8.33165981      -0.02928604      14.61132788      -0.01069219      -0.00568728      -0.00007379
Pt       1.40345174       2.38170863      14.68480439      -0.00009050       0.00989489       0.00394844
Pt       4.20514457       2.31783432      14.70834243       0.00181211       0.00305421      -0.01419917
Pt       6.96358608       2.36299476      14.59911300      -0.01067908       0.00012727      -0.01464243
Pt       9.70811896       2.37233702      14.60558231      -0.00295934       0.00087572       0.00280687
Pt       2.75587218       4.80760539      14.70485778       0.00727571       0.00194581       0.01068370
Pt       5.56719018       4.77864370      14.58643145      -0.00094591      -0.00812494      -0.00473803
Pt       8.31856592       4.77012528      14.59782870      -0.00198952      -0.00375998      -0.00349799
Pt      11.06141734       4.78866035      14.58104018      -0.00733561       0.00048774       0.01435421
Pt       4.16955792       7.18211690      14.60607496      -0.00704457       0.00617322      -0.00135729
Pt       6.93403557       7.16186104      14.59554472      -0.00578087       0.00486118       0.00094154
Pt       9.70475630       7.16503044      14.59467448      -0.00612385      -0.00119942       0.00225923
Pt      12.47399731       7.18505797      14.60391216       0.00284853       0.01406059       0.00156220
O        3.76910647       4.30233195      17.39320545       0.01360062       0.01981164      -0.01329903
C        4.29510785       3.07058145      17.36649419      -0.00822522       0.01899274       0.00902174
C        3.39331242       2.12255115      16.85340422       0.02323969       0.00832292      -0.01646354
C        5.65192519       2.90202968      17.92814486       0.01152780       0.00571685       0.00096596
C        2.08387234       2.80447957      16.64577917       0.01778226      -0.00259707       0.00312466
C        2.48019530       4.25722665      16.71480854      -0.00143210      -0.00855020      -0.02174536
H        3.48238522       1.06171292      17.08094285       0.02134787       0.00109452      -0.00021366
H        5.99895269       1.87293526      17.78988149       0.00454597      -0.00802596      -0.00522345
H        6.35706859       3.58286904      17.42898489       0.00188642       0.00986738      -0.00722120
H        5.64885723       3.15312512      18.99996037      -0.01907501      -0.00206562       0.00459070
H        1.23954152       2.47344467      17.26517381      -0.01294113       0.02060328       0.00736390
H        1.81003237       4.96984744      17.20073706       0.01298587       0.01146326      -0.00326582
