65
Lattice="11.087434113345987 0.0 0.0 5.543717056672993 9.60199512801046 0.0 0.0 0.0 24.526424302659752" Properties=species:S:1:pos:R:3:forces:R:3 energy=-44580.78560296169 free_energy=-44580.78560296169 pbc="T T T"
Pt       1.38588521       0.80014120       9.92637509       0.00958893       0.00675326      -0.00366434
Pt       4.15771362       0.79986071       9.92601382      -0.00201292       0.01341165       0.02262288
Pt       6.92972071       0.79986071       9.92601382      -0.00086749      -0.00331261      -0.02095758
Pt       9.70154912       0.80014120       9.92637509       0.01570661      -0.00469201      -0.01106706
Pt       2.77155651       3.20075526       9.92601382       0.01530038      -0.01522556       0.01592438
Pt       5.54371716       3.20066660       9.92553028      -0.00900812      -0.01019340       0.00765417
Pt       8.31587782       3.20075526       9.92601382       0.00680134       0.00333292      -0.00979976
Pt      11.08743433       3.20078504       9.92637148       0.00614905      -0.00311078       0.00283798
Pt       4.15756005       5.60138382       9.92601382       0.00622027      -0.00252251      -0.03111446
Pt       6.92987428       5.60138382       9.92601382       0.00784469       0.01010675      -0.01621106
Pt       9.70170657       5.60128290       9.92635448       0.00274902      -0.00059521       0.01405494
Pt      12.47316209       5.60128290       9.92635448       0.00134726      -0.00104670      -0.01092899
Pt       5.54371716       8.00171740       9.92637509       0.00451691       0.00072557      -0.00498203
Pt       8.31567832       8.00160727       9.92637148       0.00370625      -0.00218647       0.00481850
Pt      11.08743433       8.00143378       9.92635448       0.00498254       0.00138377      -0.00027819
Pt      13.85919034       8.00160727       9.92637148       0.00254462       0.00469998      -0.00727494
Pt       0.00961357       1.59964889      12.26380523      -0.00719035      -0.00144599       0.00149587
Pt       2.78315641       1.60185461      12.27167025       0.00130792      -0.00363323       0.01319696
Pt       5.54766473       1.60029080      12.26668884      -0.00595236       0.00619327       0.00952182
Pt       8.32420735       1.59723430      12.25780403      -0.00267163       0.01199522       0.01139976
Pt       1.39376538       3.99928756      12.26112724      -0.00407494       0.00206511       0.00338151
Pt       4.16461734       3.99817259      12.26421053       0.00731376      -0.01001728      -0.00136577
Pt       6.93595780       4.00089456      12.25745345      -0.00362783       0.00577598       0.00559266
Pt       9.70895222       4.00062043      12.26388857       0.00086466      -0.00300331      -0.00682731
Pt       2.77901187       6.40262469      12.25901242      -0.00033604       0.00284673       0.00221835
Pt       5.54936799       6.40185723      12.26024364       0.01076829       0.00806375       0.00266161
Pt       8.32236743       6.40119992      12.26506891       0.00293106       0.00271920      -0.01531940
Pt      11.09492526       6.40099527      12.26440135      -0.01649543       0.00139225      -0.00892996
Pt       4.16542691       8.80140112      12.26511647       0.00129558       0.00651209      -0.00509413
Pt       6.93719609       8.80323469      12.26293965       0.00015015      -0.00448220       0.01177025
Pt       9.70828582       8.80173010      12.26332647      -0.00254385       0.00667973       0.01349829
Pt      12.47957156       8.80215617      12.26363362      -0.00220112       0.00458865       0.00935907
Pt       0.01137039      -0.00211931      14.60474267      -0.00112049      -0.00114877      -0.00941049
Pt       2.77992125      -0.00997065      14.60240632       0.00775522       0.01216517      -0.00574950
Pt       5.55825426      -0.01018457      14.60138839      -0.00926857       0.01296556       0.00482493
Pt       8.33056690      -0.00188058      14.60336238      -0.00879754      -0.00073405      -0.00423744
Pt       1.38916545       2.40048795      14.60076678       0.00203220      -0.01458124      -0.01194123
Pt       4.17225833       2.39985191      14.63140562       0.00093974      -0.01781877      -0.01083180
Pt       6.95652582       2.40129909      14.58454351      -0.01805737      -0.00191187       0.00775188
Pt       9.71379149       2.39988536      14.60048960      -0.00075410      -0.00267909       0.00422355
Pt       2.77951410       4.81070057      14.58505324       0.00181443      -0.00158586       0.00349567
Pt       5.56229433       4.80898012      14.59048848       0.00355609      -0.00105724       0.01504147
Pt       8.32905946       4.80046534      14.60258900      -0.00088523      -0.00398135       0.00027202
Pt      11.09771139       4.80161048      14.60298384      -0.00643573      -0.00182240      -0.00352550
Pt       4.16992841       7.20039875      14.60112504      -0.00344219       0.01213921       0.00019720
Pt       6.94163820       7.20066916      14.60119657      -0.00479382       0.00124184      -0.00128632
Pt       9.71226279       7.19722649      14.60445398       0.00587034       0.01762157      -0.00839028
Pt      12.48437814       7.19936182      14.60100274       0.00460536       0.01125989       0.00623184
O        3.86283648       4.10548190      17.90075216       0.00358489       0.01344198      -0.00495657
O        6.18450137       1.28884006      17.81394384      -0.00441433      -0.00083149       0.01398474
C        4.26341870       2.80222911      17.67787618       0.00320334       0.00400244      -0.00734770
C        3.21161254       1.88285850      18.27309231       0.00231142      -0.00450097      -0.00889576
C        1.93175921       2.69966929      18.05978336      -0.01178697      -0.00413973       0.00799047
C        2.41797109       4.15123297      18.12086196      -0.00505762       0.00102973       0.00047308
C        5.73595824       2.61198022      18.04657452       0.00513141       0.00132797       0.00475603
H        4.24432552       2.59012775      16.48257994       0.00953674       0.00140279       0.00546565
H        3.43740584       1.74544529      19.34387523      -0.01190112      -0.01770230      -0.01574801
H        3.19354334       0.89739511      17.79376877       0.00016609      -0.00850675       0.00043195
H        1.51557217       2.48148735      17.05571479      -0.01684715       0.00467941       0.00866745
H        1.14834607       2.48395444      18.79519633      -0.01268042      -0.00562455      -0.00424515
H        1.98233131       4.78995841      17.33397041      -0.00993217      -0.00655554      -0.00282024
H        2.25688701       4.63163746      19.09606260       0.00916110      -0.00725694       0.01183273
H        5.82219645       2.80087553      19.12944959      -0.00094848      -0.00748191       0.01081869
H        6.33588369       3.37139357      17.51709921       0.00456576      -0.00690367      -0.00543377
H        6.53195230       1.23602811      16.89227887       0.00778273      -0.01023222       0.00016738
