48
Lattice="11.087434113345987 0.0 0.0 0.0 11.087434113345987 0.0 0.0 0.0 23.919997093830293" Properties=species:S:1:pos:R:3:forces:R:3 energy=-42682.19517065577 free_energy=-42682.19517065577 pbc="T T T"
Pt      -0.00009527      -0.00004859       9.96667100       0.00161568       0.00271920      -0.01173246
Pt       2.77173621      -0.00015720       9.96645199      -0.00063275       0.00105929      -0.00686767
Pt       5.54376953      -0.00034343       9.96640857      -0.00151926       0.00223197      -0.00648638
Pt       8.31571360      -0.00018976       9.96662959       0.00059392       0.00209956      -0.00947657
Pt      -0.00042809       2.77133446       9.96638676       0.00534481       0.00224997      -0.00535201
Pt       2.77173606       2.77103184       9.96622468      -0.00023680       0.00793340      -0.00170438
Pt       5.54421354       2.77185517       9.96597376      -0.00623930       0.00074716       0.00031419
Pt       8.31562674       2.77188781       9.96633361       0.00175529      -0.00214687      -0.00556464
Pt      -0.00075902       5.54390697       9.96597014       0.01039394      -0.00328947      -0.00028642
Pt       2.77205531       5.54389405       9.96599512      -0.00140999      -0.00057361       0.00273540
Pt       5.54467518       5.54413479       9.96609470      -0.01180471      -0.00186893      -0.00468095
Pt       8.31538521       5.54402761       9.96577354       0.00195198      -0.00258679      -0.00304881
Pt      -0.00040448       8.31603045       9.96615557       0.00715667      -0.00116445      -0.00378903
Pt       2.77197514       8.31628060       9.96624031       0.00000746      -0.00749425      -0.00366665
Pt       5.54417137       8.31566934       9.96635634      -0.00681754      -0.00130381      -0.00920995
Pt       8.31556307       8.31551749       9.96620598      -0.00004577       0.00214867      -0.00832600
Pt       1.38560016       1.38540608      11.96004042       0.00428089       0.00588680      -0.00084898
Pt       4.15789350       1.38537960      11.96000242      -0.00064715       0.00683553       0.00263641
Pt       6.92987627       1.38552947      11.96002739      -0.00465832       0.00554047       0.00314549
Pt       9.70140010       1.38548372      11.95999880       0.00051268       0.00516432       0.00000848
Pt       1.38556393       4.15740477      11.95983701       0.00593822       0.00661802      -0.00090966
Pt       4.15820480       4.15772951      11.95978839      -0.00713867      -0.00042063      -0.00151001
Pt       6.93004730       4.15794123      11.96000437      -0.00615316      -0.00492778       0.00054019
Pt       9.70112310       4.15768030      11.95994268       0.00695458       0.00121819       0.00141693
Pt       1.38565302       6.93010999      11.95996973       0.00551913      -0.00583718       0.00091120
Pt       4.15838227       6.93012809      11.95982204      -0.01086548      -0.00555204      -0.00263230
Pt       6.92998266       6.93014636      11.95998211      -0.00471103      -0.00432974      -0.00128787
Pt       9.70099892       6.93016928      11.96008292       0.00991366      -0.00521908       0.00271714
Pt       1.38568777       9.70188542      11.95996281       0.00455214      -0.00558726       0.00215407
Pt       4.15812420       9.70156921      11.96004897      -0.00649564      -0.00150101       0.00074433
Pt       6.92984746       9.70140982      11.95990243      -0.00356046       0.00233636       0.00165219
Pt       9.70127139       9.70167469      11.95999270       0.00533838      -0.00170233       0.00080347
Pt      -0.00021023      -0.00021116      13.95446672       0.00146476      -0.00021212       0.00244281
Pt       2.77144437      -0.00033836      13.95442140       0.00488767       0.00211345      -0.00042063
Pt       5.54374344      -0.00058039      13.95370447      -0.00034221       0.00811620       0.00693015
Pt       8.31581587      -0.00049238      13.95364116      -0.00468429       0.00597679       0.00896029
Pt      -0.00033936       2.77100790      13.95386271       0.00154780       0.00902483       0.00243792
Pt       2.77161369       2.77107736      13.95372831       0.00420581       0.00753642      -0.00009205
Pt       5.54387823       2.77167347      13.95337375      -0.00067620      -0.00093845       0.00415465
Pt       8.31580599       2.77181094      13.95329858      -0.00552607       0.00005014       0.00902149
Pt      -0.00071179       5.54385117      13.95364768       0.00639639       0.00093948       0.00164139
Pt       2.77225303       5.54400723      13.95370728      -0.00580966      -0.00209931      -0.00347279
Pt       5.54444910       5.54415854      13.95352683      -0.00629766      -0.00704251       0.00633726
Pt       8.31521270       5.54419840      13.95328808       0.00616499      -0.00493832       0.01206233
Pt      -0.00039340       8.31639845      13.95405669       0.00444981      -0.00945060       0.00270506
Pt       2.77201331       8.31625368      13.95422601      -0.00391913      -0.00677280      -0.00129686
Pt       5.54407046       8.31560505      13.95404942      -0.00388519       0.00119891       0.00480359
Pt       8.31545020       8.31578756      13.95372407       0.00313058      -0.00278630       0.01138716
