76
Lattice="10.931999950290717 0.0 0.0 5.465999975145358 9.467385256950518 0.0 0.0 0.0 24.314003205440937" Properties=species:S:1:pos:R:3:forces:R:3 energy=-130944.49309975348 free_energy=-130944.49309975348 pbc="T T T"
Ru       0.00047608       0.00031005      10.09588183       0.02432186      -0.03731262       0.03755405
Ru       2.73188120       0.00040297      10.09617686      -0.02209863      -0.04250291       0.04900214
Ru       5.46566882      -0.00005913      10.09637430      -0.01700656      -0.00985375      -0.01755369
Ru       8.20001473      -0.00033284      10.09616409      -0.01047056       0.00654037      -0.02444451
Ru       1.36629981       2.36626461      10.09592305      -0.01903825      -0.00941152      -0.03587383
Ru       4.09849487       2.36683663      10.09612927      -0.00580864      -0.01367390      -0.03328987
Ru       6.83248611       2.36672497      10.09636258      -0.00809872       0.00524325      -0.02782345
Ru       9.56671794       2.36610528      10.09618193      -0.00294083       0.01028878      -0.01516565
Ru       2.73265229       4.73357443      10.09576582      -0.01378883       0.01761643      -0.05752329
Ru       5.46541409       4.73414677      10.09623705       0.01550092       0.03253962       0.02886012
Ru       8.19911507       4.73397648      10.09645380      -0.02128976       0.04475082       0.03072263
Ru      10.93280360       4.73316819      10.09606682      -0.02655795       0.00908114      -0.03115149
Ru       4.09964486       7.10087069      10.09592735       0.02662969       0.00415722       0.00456525
Ru       6.83207981       7.10150799      10.09626966       0.00551553       0.00076722       0.06274854
Ru       9.56520066       7.10074774      10.09632269      -0.04160148      -0.00048542       0.03625795
Ru      12.29907141       7.10006569      10.09594573      -0.02608384       0.01096807      -0.02397759
Ru      -0.00146183       1.57565315      12.15613367       0.00750531      -0.00078316       0.01954424
Ru       2.72911119       1.57701347      12.15352221       0.00032550      -0.01736960      -0.01297430
Ru       5.46383528       1.57724695      12.15389204       0.00038618      -0.00561323       0.00307787
Ru       8.19600949       1.57904671      12.15317905       0.00425363      -0.01435010       0.01032709
Ru       1.36337321       3.94487669      12.15393216      -0.00383326      -0.01056929      -0.00579604
Ru       4.09319695       3.94270798      12.14979780       0.00088163      -0.00530676      -0.01149772
Ru       6.83198807       3.94332755      12.15540775      -0.00180569       0.00811826       0.00776267
Ru       9.56312864       3.94601147      12.15474115       0.00822110      -0.00299816       0.00722737
Ru       2.73006350       6.31378166      12.15247668       0.00333986      -0.00623493      -0.00806118
Ru       5.46720835       6.31792757      12.16109175       0.00460279       0.00310281      -0.00760147
Ru       8.19285317       6.31549744      12.16888401       0.00024271       0.00351007       0.00576159
Ru      10.92931640       6.31237160      12.15363107      -0.00799253      -0.00102227       0.00036458
Ru       4.09710662       8.68075137      12.15599089       0.01541196      -0.00243072      -0.01863613
Ru       6.83264650       8.67139894      12.17094315      -0.00247186      -0.00281664      -0.01350189
Ru       9.56488200       8.67835646      12.15806426      -0.01499236      -0.00407931      -0.00417444
Ru      12.29644247       8.68063298      12.15427539      -0.00536101      -0.00236439      -0.00047694
Ru      -0.00825098       0.01579794      14.21963870      -0.00244898       0.00118142      -0.00610406
Ru       2.74128499       0.01368900      14.22101182      -0.00741275      -0.00619019      -0.01523430
Ru       5.46177345      -0.00023360      14.22190240      -0.00806581       0.00222503      -0.00046923
Ru       8.19915157       0.00218693      14.21878833       0.00172958       0.00281639      -0.00703094
Ru       1.36635186       2.36604720      14.21837077      -0.00738318       0.00043837      -0.00058698
Ru       4.08686139       2.36191225      14.21179139       0.00293260       0.00060164       0.00476554
Ru       6.82643981       2.35955666      14.21649664       0.02106633       0.00437473      -0.00957067
Ru       9.56558812       2.36142449      14.21385318       0.00872478      -0.00588705      -0.00139277
Ru       2.71802465       4.73169583      14.20887901      -0.00176018      -0.00354581       0.01252359
Ru       5.44372762       4.71848041      14.19969135       0.01439329      -0.00781204      -0.00539726
Ru       8.21555263       4.71978323      14.21710152      -0.00008845      -0.00492983      -0.00469843
Ru      10.93200538       4.73544844      14.21621552       0.00135189       0.00214019       0.00841779
Ru       4.06991429       7.11262713      14.20501347       0.00216050      -0.00639125       0.00952362
Ru       6.83165433       7.09491935      14.25664004      -0.00295188       0.00557209      -0.00251120
Ru       9.58025843       7.10253823      14.21997039      -0.00824604      -0.01014814      -0.00953545
Ru      12.29578529       7.10143828      14.21532303      -0.00284313      -0.00072171       0.01110074
O        6.74029877       7.15060661      16.59568466       0.00727442       0.00342574      -0.00897315
C        6.74556299       3.21305644      17.69821135       0.00178512      -0.00281587       0.00505736
C        5.40400394       3.93271921      17.94879851       0.00801876       0.00051319       0.00820079
C        7.91032459       4.22498071      17.57543359      -0.00518592      -0.00036715      -0.00275545
C        5.35775479       5.27394452      17.22805313       0.00516457      -0.00301925       0.01115010
C        7.63366240       5.54401695      18.29067679       0.00967789      -0.00445444      -0.00250734
C        6.40347222       6.26403047      17.72414473       0.01129511       0.00068520      -0.00050805
C        7.03659002       2.13551753      18.75206121       0.01379680       0.00296757      -0.00216590
C        5.94187806       1.07577085      18.95427748       0.02504949       0.00103127       0.01166895
C        5.68642888       0.19434676      17.72933092       0.01053407       0.01970262       0.01152240
H        6.65746119       2.71149341      16.70350452      -0.00427369       0.00281664       0.01440049
H        5.24205938       4.08091078      19.03151103       0.02420822       0.00842499       0.00053119
H        4.57006145       3.30895737      17.59405838       0.00221938       0.01203765       0.00835094
H        8.09660997       4.44320091      16.49422858      -0.00248266       0.00753719      -0.01411099
H        8.85212718       3.77999767      17.92698374      -0.00371370      -0.00936679      -0.00504168
H        5.64665112       5.06788154      16.15840567      -0.01150543       0.00627761       0.01390093
H        4.35410606       5.71686036      17.18995447       0.02024358      -0.00133595       0.00867336
H        7.45425409       5.35454105      19.36206470      -0.00285264       0.02011040       0.00411145
H        8.50799337       6.21201044      18.24217361       0.01496074      -0.00117654      -0.00489075
H        5.96284775       6.91949162      18.49359207       0.00776267       0.00861474       0.01191655
H        7.23068860       2.63931325      19.71629367      -0.01805274      -0.00628763       0.00910350
H        7.97744509       1.62861921      18.47871785       0.00302619      -0.00289506      -0.01886496
H        5.00403243       1.56137774      19.27005594      -0.00115057      -0.01086240      -0.01763108
H        6.24027608       0.43464914      19.79881968       0.01598172       0.00270763       0.00998179
H        7.45843398       7.76497869      16.85668835       0.00222760      -0.00046897      -0.00257316
H        5.25172996       0.76616790      16.89069105       0.00301102       0.01004916      -0.01064591
H        6.61694130      -0.26193387      17.35852755       0.00790074      -0.00143365       0.00055407
H        4.98712348      -0.62387313      17.95152586      -0.02197753      -0.00364711       0.02349243
