70
Lattice="10.931999950290717 0.0 0.0 5.465999975145358 9.467385256950518 0.0 0.0 0.0 24.314003205440937" Properties=species:S:1:pos:R:3:forces:R:3 energy=-130848.1152311159 free_energy=-130848.1152311159 pbc="T T T"
Ru       0.00047608       0.00031005      10.09588183       0.00716181      -0.00812006      -0.03024697
Ru       2.73188120       0.00040297      10.09617686       0.00466115      -0.01779101      -0.03131989
Ru       5.46566882      -0.00005913      10.09637430       0.00181160       0.02238274      -0.03223032
Ru       8.20001473      -0.00033284      10.09616409       0.00040829       0.02517753      -0.03173975
Ru       1.36629981       2.36626461      10.09592305       0.00182780       0.01039291      -0.03349016
Ru       4.09849487       2.36683663      10.09612927       0.00517949       0.00604621      -0.03617954
Ru       6.83248611       2.36672497      10.09636258      -0.00550679       0.01102900       0.12385827
Ru       9.56671794       2.36610528      10.09618193      -0.01492860       0.01470003      -0.03566197
Ru       2.73265229       4.73357443      10.09576582       0.02455918      -0.02374619      -0.04244480
Ru       5.46541409       4.73414677      10.09623705       0.02522561       0.00169153       0.12590281
Ru       8.19911507       4.73397648      10.09645380      -0.02105271      -0.01647460       0.10668818
Ru      10.93280360       4.73316819      10.09606682      -0.03573293      -0.01894620      -0.03910391
Ru       4.09964486       7.10087069      10.09592735       0.03493744      -0.00642493      -0.01904519
Ru       6.83207981       7.10150799      10.09626966       0.00571196      -0.01464063      -0.00627221
Ru       9.56520066       7.10074774      10.09632269      -0.02370120      -0.00633983      -0.03294020
Ru      12.29907141       7.10006569      10.09594573      -0.01084928      -0.00048440      -0.09669533
Ru      -0.00144805       1.58003342      12.15738266      -0.00250451       0.00278502      -0.00448709
Ru       2.73376259       1.57974433      12.15728986       0.00623287       0.00202012      -0.00895335
Ru       5.46320034       1.57904601      12.15488466       0.00874998       0.00980156       0.00098242
Ru       8.20069008       1.58032493      12.15478105       0.00341751       0.00103975       0.00023937
Ru       1.36545337       3.94475903      12.15122630       0.00284570      -0.00219829      -0.01067625
Ru       4.09604240       3.94231904      12.15577837       0.00489615      -0.00444287      -0.00940432
Ru       6.83233396       3.94427497      12.15235479      -0.00396027      -0.00288015      -0.00036715
Ru       9.56727030       3.94147757      12.15629804      -0.00129532      -0.01200602      -0.00320977
Ru       2.73413037       6.31042680      12.14330158      -0.00175272       0.00374995       0.00062144
Ru       5.46829995       6.31612386      12.15922216       0.01227470      -0.00935830       0.00608246
Ru       8.19965569       6.31098765      12.15638514      -0.02099537      -0.00119479       0.00826147
Ru      10.93049922       6.30983575      12.14642446       0.00738524       0.00724614       0.00368979
Ru       4.10030000       8.67907282      12.15237792      -0.00669567       0.00016738       0.00356689
Ru       6.83307331       8.68157460      12.16022472       0.00080296      -0.01996462       0.01490880
Ru       9.56657035       8.67741331      12.15222911      -0.00151618       0.00622695      -0.00551964
Ru      12.29954535       8.67793984      12.14514538       0.00289429      -0.00165091      -0.00069317
Ru      -0.00924159      -0.00032779      14.21905138       0.00301102       0.00883200       0.00812057
Ru       2.74430915       0.00313824      14.21536452      -0.00062144       0.00170233       0.01373560
Ru       5.45917390      -0.03846345      14.20658376      -0.00637814       0.01000828       0.01311957
Ru       8.21265044      -0.03491894      14.20839583      -0.00120045       0.00073251       0.00593385
Ru       1.36664276       2.37812877      14.21926883       0.00365251       0.00442898      -0.00620484
Ru       4.07544449       2.35277823      14.23090680      -0.00056487      -0.00590968      -0.00578935
Ru       6.83058219       2.31394489      14.25945601       0.00210008       0.00664527       0.00034247
Ru       9.59274730       2.34615413      14.22774514       0.00062992       0.01001650      -0.00644267
Ru       2.70358216       4.74325214      14.20719089       0.00460690      -0.00026817       0.01216775
Ru       5.42222604       4.74887792      14.23476414      -0.00634240      -0.00306604      -0.00237004
Ru       8.22504374       4.74696318      14.23710310       0.00161594       0.00596059      -0.00046948
Ru      10.95512618       4.74146614      14.21065122      -0.00657174       0.00022729       0.00395616
Ru       4.07783090       7.12044306      14.21155312      -0.00595647      -0.00039004       0.00268886
Ru       6.84316457       7.14886930      14.22076547      -0.00252662       0.00046640      -0.01029881
Ru       9.58808814       7.11321558      14.20929167       0.00203169      -0.00788994      -0.00752665
Ru      12.30159705       7.09184318      14.20810587      -0.00070860       0.00218518       0.01150389
O        6.76081535       6.59769588      16.76728073      -0.00802210      -0.00390808      -0.00125316
C        6.82607731       1.02383348      17.08514550      -0.01011498      -0.00952080       0.01038340
C        6.75228773       1.10401811      18.61947488      -0.00664245      -0.00390859      -0.00162699
C        6.81334894       2.37224496      16.40149185       0.00113309      -0.00376358       0.02137924
C        5.56264084       3.09246153      16.27144096       0.00632131       0.00074948       0.01060194
C        8.02487106       3.15618578      16.30230357       0.00599581       0.00342754       0.01735392
C        6.63856116      -0.27792303      19.26567162      -0.00395101       0.00797402       0.00231682
C        5.50570780       4.54409581      16.38623925       0.00214456      -0.00627143       0.01068242
C        8.01565418       4.60846120      16.38785075      -0.00595159       0.00383094      -0.00015349
C        6.73994492       5.26160422      16.44206184      -0.00561683       0.00953674       0.01121310
H        5.96574752       0.42895588      16.71219622       0.01215001      -0.00468532       0.01333605
H        7.73163017       0.46323392      16.77610484      -0.01488977       0.00811672       0.02297666
H        7.64200623       1.63234993      19.00024109      -0.01847646      -0.00024528      -0.00866487
H        5.88201569       1.72007501      18.89900402       0.00161594       0.00007585       0.00500105
H        4.64913392       2.54822078      16.56210963       0.00260401       0.01161676      -0.01115165
H        8.96444268       2.65842885      16.58364972       0.00165013      -0.00939738       0.01745342
H        5.76543125      -0.82291461      18.87594101       0.01991988       0.00913564      -0.00016249
H        7.52939307      -0.89036458      19.06182439      -0.01219783       0.00818665      -0.02031454
H        6.52533869      -0.20304234      20.35628083       0.02242876       0.00729525      -0.01893489
H        4.61729502       5.00312120      16.82518754       0.00832549      -0.02240356       0.00716875
H        8.86606020       5.12530929      16.83368902       0.00579038       0.00013010       0.00904334
H        5.84966323       6.97502346      16.65384353      -0.00148610       0.00255311      -0.01323552
