75
Lattice="10.931999950290717 0.0 0.0 5.465999975145358 9.467385256950518 0.0 0.0 0.0 24.314003205440937" Properties=species:S:1:pos:R:3:forces:R:3 energy=-130504.19711055946 free_energy=-130504.19711055946 pbc="T T T"
Ru       0.00047608       0.00031005      10.09588183      -0.00242995      -0.00052965      -0.01106474
Ru       2.73188120       0.00040297      10.09617686       0.00606549      -0.00313520      -0.01513686
Ru       5.46566882      -0.00005913      10.09637430       0.00351778       0.00668667      -0.00671032
Ru       8.20001473      -0.00033284      10.09616409      -0.01178182       0.01018285      -0.00698234
Ru       1.36629981       2.36626461      10.09592305      -0.00088369      -0.00201832      -0.01448122
Ru       4.09849487       2.36683663      10.09612927       0.02009240       0.00246852      -0.00398855
Ru       6.83248611       2.36672497      10.09636258      -0.00153495       0.01522633       0.02903804
Ru       9.56671794       2.36610528      10.09618193      -0.02265013       0.01011421      -0.00474960
Ru       2.73265229       4.73357443      10.09576582       0.00632414      -0.00090451      -0.00506713
Ru       5.46541409       4.73414677      10.09623705       0.01860450      -0.01189032       0.03044443
Ru       8.19911507       4.73397648      10.09645380      -0.01592721      -0.00914413       0.02766893
Ru      10.93280360       4.73316819      10.09606682      -0.01457250       0.00189799      -0.00846999
Ru       4.09964486       7.10087069      10.09592735       0.00109889      -0.00295523      -0.00611331
Ru       6.83207981       7.10150799      10.09626966       0.00437885      -0.01785143      -0.00764543
Ru       9.56520066       7.10074774      10.09632269      -0.00335580      -0.00227671      -0.00829078
Ru      12.29907141       7.10006569      10.09594573      -0.00739681       0.00777733      -0.01760126
Ru      -0.00100137       1.57781210      12.15622442       0.00516175       0.00179000       0.00410759
Ru       2.73309244       1.57766280      12.15610090      -0.00307221       0.00110326       0.00326247
Ru       5.46663932       1.57750334      12.15724376      -0.00718161      -0.00001723       0.01280332
Ru       8.19793195       1.57764377      12.15737066       0.00539392      -0.00090323       0.01373715
Ru       1.36595596       3.94491959      12.15544105       0.00029851      -0.00391373       0.00208182
Ru       4.09895769       3.94484045      12.15655852      -0.00215767      -0.00274388       0.00632003
Ru       6.83255279       3.94501355      12.16174783      -0.00271637       0.00307684       0.00862965
Ru       9.56491129       3.94502867      12.15694668       0.00442024      -0.00188590       0.00648535
Ru       2.73267589       6.31186650      12.15434923      -0.00382992       0.00043349       0.00889062
Ru       5.46543994       6.31219294      12.15699565      -0.00176455       0.00097471       0.00779764
Ru       8.19909641       6.31170436      12.15730790       0.00082790       0.00391913       0.00671109
Ru      10.93149691       6.31173247      12.15441591       0.00497586       0.00098242       0.01051478
Ru       4.09843186       8.67857318      12.15612054       0.00421687       0.00158483       0.00381243
Ru       6.83214878       8.67799565      12.15631426       0.00153778       0.00356946       0.00613619
Ru       9.56592647       8.67828526      12.15599625      -0.00448606       0.00320359       0.00486067
Ru      12.29830373       8.67892811      12.15490278      -0.00080964      -0.00414308       0.01161702
Ru      -0.00088855      -0.00027182      14.21922715      -0.00329101      -0.00101739      -0.00029799
Ru       2.73321576      -0.00041861      14.21949436       0.00070474      -0.00168870      -0.00373684
Ru       5.46039922      -0.00630592      14.21895369       0.00941409       0.00994400      -0.00097162
Ru       8.20319847      -0.00613374      14.21888040      -0.00559164       0.00838822      -0.00022266
Ru       1.36601593       2.36718168      14.21876249      -0.00149972       0.00142850      -0.00205843
Ru       4.08552386       2.35880634      14.21419225       0.01603134       0.01026436       0.00012958
Ru       6.83217202       2.35705599      14.22446576      -0.00107241       0.00692887       0.00658794
Ru       9.57719933       2.36005514      14.21513158      -0.01218060       0.00684119       0.00065666
Ru       2.72329501       4.73363589      14.21537922       0.01152034       0.00116137       0.00407828
Ru       5.45387892       4.74118235      14.22155670       0.00392736      -0.00871553       0.01213046
Ru       8.20980019       4.74126119      14.22344484      -0.00595802      -0.00819282       0.00545640
Ru      10.93902218       4.73407442      14.21666621      -0.00867362      -0.00217695       0.00009050
Ru       4.09397450       7.10782387      14.21666889       0.00606832      -0.00259733      -0.00158791
Ru       6.83221950       7.11460282      14.21490549      -0.00151078      -0.00889036      -0.00429246
Ru       9.56959303       7.10696744      14.21773577      -0.00623133      -0.00195687      -0.00711553
Ru      12.29777440       7.10005356      14.21827251       0.00366742       0.00361189       0.00812880
C        6.80120745       2.44256076      17.47537625      -0.00173781       0.01273236      -0.01047725
C        5.51923567       3.17680215      17.88122971      -0.00402840       0.00322725       0.01232330
C        8.06176766       3.19317575      17.91676509       0.00091660       0.00499771       0.01029881
C        5.52334086       4.64308575      17.45972231       0.01365539       0.00425903      -0.00988718
C        8.04898638       4.65799283      17.48878125      -0.01168026       0.00500388      -0.01224462
C        6.77641116       5.38802892      17.91036264       0.00194453       0.00509464       0.01560814
C        6.80694412       0.95580265      17.84500663       0.00382503      -0.00683425      -0.01143215
C        6.73824244       0.63892771      19.34393858      -0.00030005      -0.00067209      -0.01380554
C        6.80804688      -0.86353009      19.62516405       0.00125573       0.00137657      -0.00823319
H        6.81927973       2.46888212      16.33512559      -0.00398572      -0.00444955       0.01366670
H        5.40458492       3.13239024      18.97873858       0.02091515      -0.01814479      -0.00222015
H        4.64422421       2.65774575      17.45520057       0.00110763       0.00293774      -0.01494659
H        8.95371067       2.68437027      17.51493484      -0.00212245       0.00505068      -0.01289434
H        8.14658913       3.15137390      19.01732089      -0.01863356      -0.01456299      -0.00698234
H        4.60642260       5.15810705      17.78073393       0.01036489      -0.00748885       0.00552273
H        5.47879407       4.68314635      16.33055129       0.01093207       0.00244460       0.00609506
H        8.11568244       4.69205616      16.36144751      -0.00585569       0.01258709       0.00619147
H        8.95061143       5.18638146      17.83032766      -0.00622233      -0.00829669       0.00133209
H        6.77404268       6.41717121      17.51803093       0.00173472      -0.00572610      -0.02314430
H        6.76195863       5.47046208      19.01235861       0.00503345       0.01395286      -0.00197486
H        7.71749047       0.49679528      17.41956325       0.00295574      -0.00949611      -0.01355177
H        5.95953823       0.46468849      17.33289397      -0.00613851      -0.00693658      -0.00679517
H        5.80584547       1.04446994      19.76857610       0.01620463      -0.00292052      -0.00267549
H        7.56362886       1.14335244      19.87205112      -0.01440229      -0.00103230      -0.00417213
H        5.98660020      -1.40076471      19.12801260      -0.00419578       0.00817225      -0.00231399
H        7.75122202      -1.29207861      19.25462395      -0.00206588      -0.00003162      -0.00032859
H        6.74321571      -1.06997267      20.70285428       0.00483470      -0.01925525      -0.01855077
