61
Lattice="11.087434113345987 0.0 0.0 0.0 11.087434113345987 0.0 0.0 0.0 23.919997093830293" Properties=species:S:1:pos:R:3:forces:R:3 energy=-44505.451297485706 free_energy=-44505.451297485706 pbc="T T T"
Pt      -0.00009527      -0.00004859       9.96667100      -0.00588294      -0.00349670      -0.10539852
Pt       2.77173621      -0.00015720       9.96645199      -0.04026270       0.03985313       0.00920609
Pt       5.54376953      -0.00034343       9.96640857       0.04040977       0.04096744       0.01109714
Pt       8.31571360      -0.00018976       9.96662959       0.00294854       0.00188128      -0.09820868
Pt      -0.00042809       2.77133446       9.96638676       0.03813974      -0.05937089       0.01491523
Pt       2.77173606       2.77103184       9.96622468       0.00864919      -0.00831752       0.06536927
Pt       5.54421354       2.77185517       9.96597376      -0.00743023      -0.01160339       0.07078813
Pt       8.31562674       2.77188781       9.96633361      -0.04933201      -0.05997432       0.02290544
Pt      -0.00075902       5.54390697       9.96597014       0.02356879       0.03807547      -0.01131568
Pt       2.77205531       5.54389405       9.96599512       0.01728167       0.01558371       0.07846364
Pt       5.54467518       5.54413479       9.96609470      -0.03043441       0.01356514       0.08803380
Pt       8.31538521       5.54402761       9.96577354      -0.01774524       0.03283659      -0.00175452
Pt      -0.00040448       8.31603045       9.96615557      -0.02575166       0.03981122      -0.11084386
Pt       2.77197514       8.31628060       9.96624031      -0.00133723      -0.04972848       0.03943172
Pt       5.54417137       8.31566934       9.96635634       0.00048362      -0.04579906       0.03870924
Pt       8.31556307       8.31551749       9.96620598       0.01144347       0.03703417      -0.09537790
Pt       1.39859765       1.39974550      11.97496704       0.00255516       0.00890064       0.01530578
Pt       4.15656259       1.39402265      11.96705284       0.00383994       0.00384843       0.00837897
Pt       6.91511938       1.39972170      11.97512159       0.00283876       0.00057258       0.00169153
Pt       9.70123965       1.38861512      11.95703372      -0.00612900       0.00065255       0.00643161
Pt       1.38985440       4.15659359      11.96137207      -0.00440559       0.00254359       0.01641135
Pt       4.15435093       4.16106771      11.97469035       0.00425620       0.00106007      -0.01262335
Pt       6.92386435       4.15645792      11.96242704      -0.00265698       0.00838591       0.00233379
Pt       9.70150881       4.15771916      11.95367240      -0.01056595       0.00438425       0.01857005
Pt       1.39391692       6.92317498      11.96248555      -0.00945600      -0.00151515       0.00232042
Pt       4.15486025       6.91016526      11.98451728       0.00648484       0.00192833      -0.01088682
Pt       6.92091660       6.92422725      11.96220597       0.00126318      -0.00312620       0.00233893
Pt       9.70194486       6.93422979      11.95275383      -0.00730168      -0.00475628       0.01119818
Pt       1.38697526       9.70644133      11.95535273      -0.00825016      -0.00751045       0.00202346
Pt       4.15705837       9.69845685      11.95671631       0.00451126      -0.00274645       0.00141102
Pt       6.92790939       9.70686678      11.95681288       0.00470743      -0.00629277      -0.00594105
Pt       9.70099398       9.70737990      11.95464441      -0.00325142      -0.00978870       0.00085823
Pt      -0.00103428       0.00346051      13.95066748       0.00440841       0.00478405       0.00419347
Pt       2.77421385      -0.00879659      13.95979268      -0.00001980       0.00904771      -0.00331389
Pt       5.54019854      -0.00874532      13.95898963      -0.00189182       0.00835891       0.00986481
Pt       8.31307460       0.00686803      13.95188705       0.00161774      -0.00855972      -0.00052553
Pt      -0.01304381       2.77372200      13.96400054       0.00275108       0.00918475      -0.01411896
Pt       2.75874841       2.76704172      14.04542544       0.00100376       0.00618325      -0.00997999
Pt       5.55532855       2.76926132      14.03983228       0.02011888      -0.00434851      -0.00712350
Pt       8.32296222       2.77573797      13.96421446       0.00497663       0.00254076      -0.00515738
Pt      -0.01777683       5.54821424      13.95503541      -0.00150538      -0.00430531      -0.00386283
Pt       2.71348617       5.55870116      14.05354310       0.00244820       0.00407597      -0.00117062
Pt       5.57923215       5.55659787      14.04103247       0.01056672       0.00187511      -0.01170803
Pt       8.32909259       5.54887373      13.95367105       0.00714458       0.00213376      -0.01355923
Pt      -0.00222535       8.32152169      13.94663372      -0.00972828      -0.00734436       0.01089968
Pt       2.76481435       8.31906111      13.95668267      -0.00553070       0.00826301       0.01003656
Pt       5.54755175       8.31765529      13.95626771       0.00037924       0.00654834      -0.00056179
Pt       8.31706891       8.32242849      13.94665459      -0.00107215      -0.00443181       0.00239550
O        4.17742667       5.63274432      16.51669185       0.00840005      -0.00375458      -0.00400886
O        7.03844185       4.23727190      17.71675582       0.00913127      -0.01841707      -0.01820778
C        5.32440883       4.92559390      16.07175684       0.00459585      -0.00944315      -0.01319567
C        6.57044249       5.29895655      16.90054006      -0.00488664      -0.00982470      -0.00970926
C        4.92176670       3.48639451      15.92057920      -0.00238958      -0.00471129       0.00343139
C        3.42216925       3.48785262      15.92091780       0.00019206       0.00151361      -0.00383917
C        3.04757183       4.93047493      16.03988666       0.01154297       0.00209185       0.00342882
H        7.37433933       5.67211977      16.23261506      -0.00134057      -0.00011544       0.00891556
H        6.28271938       6.13123666      17.55896081       0.00276034      -0.01373946      -0.00842396
H        5.41566183       2.78846644      16.60567590      -0.00384329      -0.00456448       0.00950871
H        2.92804964       2.78670921      16.60526761      -0.01773341       0.01114110      -0.00459405
H        2.15766388       5.21625535      16.60828641       0.00282539      -0.00196149       0.00057207
H        7.62860032       3.67865990      17.17081530       0.01188930      -0.00007919      -0.00602795
