59
Lattice="11.087434113345987 0.0 0.0 0.0 11.087434113345987 0.0 0.0 0.0 23.919997093830293" Properties=species:S:1:pos:R:3:forces:R:3 energy=-44472.7507804767 free_energy=-44472.7507804767 pbc="T T T"
Pt      -0.00009527      -0.00004859       9.96667100      -0.00322751       0.01463061      -0.08155051
Pt       2.77173621      -0.00015720       9.96645199      -0.03905660       0.03171713       0.01820598
Pt       5.54376953      -0.00034343       9.96640857       0.04161870       0.03474023       0.01503761
Pt       8.31571360      -0.00018976       9.96662959       0.01281361       0.00414179      -0.10296214
Pt      -0.00042809       2.77133446       9.96638676       0.05238854      -0.06110587       0.02097660
Pt       2.77173606       2.77103184       9.96622468       0.00433025      -0.00242558       0.07092645
Pt       5.54421354       2.77185517       9.96597376      -0.01003064      -0.01463703       0.07339780
Pt       8.31562674       2.77188781       9.96633361      -0.03759878      -0.06891508       0.01089325
Pt      -0.00075902       5.54390697       9.96597014       0.04264329       0.03248306      -0.00914156
Pt       2.77205531       5.54389405       9.96599512       0.03221952       0.01901177       0.08950010
Pt       5.54467518       5.54413479       9.96609470      -0.03323254       0.01212789       0.08919543
Pt       8.31538521       5.54402761       9.96577354      -0.00161568       0.02886423      -0.01965968
Pt      -0.00040448       8.31603045       9.96615557      -0.01070556       0.03060744      -0.10268369
Pt       2.77197514       8.31628060       9.96624031       0.00585337      -0.05603359       0.05259886
Pt       5.54417137       8.31566934       9.96635634      -0.00156323      -0.05206767       0.04091345
Pt       8.31556307       8.31551749       9.96620598       0.02347649       0.03994286      -0.11789742
Pt       1.40255322       1.40076849      11.97620200       0.00367154       0.01044922      -0.00207308
Pt       4.15865730       1.39255443      11.96555452      -0.00579912       0.00804292       0.00791051
Pt       6.91837086       1.39835265      11.97415337       0.00283310      -0.00143596       0.00494243
Pt       9.70252693       1.39019514      11.95971341      -0.00004448      -0.00868596      -0.01939203
Pt       1.39506170       4.15946843      11.96298913       0.00642210      -0.01555183      -0.00384380
Pt       4.15907351       4.16277628      11.97722211       0.00690675       0.00347999       0.00445289
Pt       6.92920251       4.15478411      11.96071377      -0.00453285       0.00276162       0.00845919
Pt       9.70595377       4.15656228      11.95339015      -0.00987021       0.00465652       0.00115494
Pt       1.40056831       6.92221215      11.96497483       0.00574179       0.00812726      -0.01634605
Pt       4.16151695       6.90766670      11.98841360       0.00745131       0.00463878      -0.00459122
Pt       6.92548732       6.92309649      11.96050113      -0.00444775      -0.00040263      -0.00421558
Pt       9.70691299       6.93414516      11.95111409      -0.00203631       0.00610766      -0.00787297
Pt       1.39066849       9.70518063      11.95666578      -0.00513526       0.00510287      -0.01772956
Pt       4.15920813       9.69500734      11.95806436       0.00961104       0.00987484      -0.00293157
Pt       6.93018791       9.70454548      11.95407488      -0.00370265       0.01300978       0.00361857
Pt       9.70442101       9.70731276      11.95371082       0.00019489       0.00021417      -0.00976711
Pt       0.00460701       0.00447449      13.94948126       0.01002242       0.00353192       0.00786835
Pt       2.77855315      -0.00686272      13.96017721       0.00480745       0.00509773      -0.00055639
Pt       5.54295701      -0.01048598      13.95883148      -0.00248908       0.01374486      -0.00070885
Pt       8.31851101       0.00196801      13.95041869      -0.01536697       0.00169950      -0.00036407
Pt      -0.00381189       2.77696684      13.96102297       0.00534764      -0.00621333      -0.00467761
Pt       2.76336205       2.77408086      14.05008264      -0.01189624      -0.01377957      -0.02379762
Pt       5.55459172       2.76126464      14.03337644       0.00387311       0.00099347       0.00984990
Pt       8.32969642       2.77050453      13.96503862      -0.00084178       0.01060066      -0.01067162
Pt      -0.00709473       5.55077687      13.95342912       0.00842113      -0.00904437      -0.00173961
Pt       2.72109714       5.56166598      14.06296018      -0.00224972       0.00253074       0.00350956
Pt       5.61482462       5.56199326      14.03997153       0.00016764      -0.00395179      -0.01099018
Pt       8.35126492       5.55661510      13.94669296      -0.00494526      -0.00540832      -0.00248883
Pt       0.00290137       8.32212559      13.94561682      -0.00020595       0.00035481       0.01938766
Pt       2.77061373       8.31922094      13.95986838       0.00725411       0.00358129      -0.00039106
Pt       5.55665611       8.32042785      13.95946253      -0.00616988       0.01166072      -0.00405720
Pt       8.32254895       8.32408655      13.94480947       0.00329153       0.00375612       0.01798590
O        4.21156235       5.62815965      16.51787398      -0.02058065      -0.00903743      -0.00092303
O        7.55264671       4.52552160      16.85941745      -0.01239503      -0.00389136      -0.01841578
C        5.32258665       4.88729187      16.05077441      -0.01098710       0.00286601      -0.00625575
C        4.91636280       3.45285688      15.92307948       0.00907394       0.00210959       0.00566311
C        3.41600692       3.48747764      15.93214554       0.00733330      -0.01746885       0.00918295
C        3.06536435       4.94044759      16.05157954      -0.00051216      -0.02071949       0.00261893
C        6.60020295       5.28490206      16.71746460      -0.00875332      -0.00403509       0.00438964
H        5.42282176       2.74687073      16.59232143      -0.01710426       0.00806889       0.01387444
H        2.90163241       2.79945982      16.61347896      -0.00893973      -0.01214872       0.01562459
H        2.19009944       5.23758441      16.63693786      -0.01041451      -0.01602569      -0.02412929
H        6.61205065       6.33517912      17.08537376      -0.01131928       0.00765597       0.01068576
