70
Lattice="11.087434113345987 0.0 0.0 0.0 11.087434113345987 0.0 0.0 0.0 23.919997093830293" Properties=species:S:1:pos:R:3:forces:R:3 energy=-46262.57654383882 free_energy=-46262.57654383882 pbc="T T T"
Pt      -0.00009527      -0.00004859       9.96667100      -0.08018525      -0.02526032       0.04197892
Pt       2.77173621      -0.00015720       9.96645199       0.01232098      -0.00965989      -0.03166082
Pt       5.54376953      -0.00034343       9.96640857       0.05004447       0.02837701      -0.07810909
Pt       8.31571360      -0.00018976       9.96662959      -0.00877775       0.00297785      -0.00933413
Pt      -0.00042809       2.77133446       9.96638676      -0.05739319       0.03712056       0.03026754
Pt       2.77173606       2.77103184       9.96622468       0.04173466       0.03758079      -0.11816559
Pt       5.54421354       2.77185517       9.96597376      -0.03142839       0.00403689       0.04078438
Pt       8.31562674       2.77188781       9.96633361       0.00193990      -0.03456488      -0.12979854
Pt      -0.00075902       5.54390697       9.96597014      -0.01154862       0.01697237       0.02333430
Pt       2.77205531       5.54389405       9.96599512       0.00715307       0.00634137      -0.02608281
Pt       5.54467518       5.54413479       9.96609470      -0.00611203       0.00851549      -0.00061167
Pt       8.31538521       5.54402761       9.96577354       0.07783526      -0.02710740      -0.02497827
Pt      -0.00040448       8.31603045       9.96615557       0.00167456      -0.00720423       0.11001005
Pt       2.77197514       8.31628060       9.96624031       0.00182008      -0.02500912       0.06205229
Pt       5.54417137       8.31566934       9.96635634      -0.02510399       0.01646714       0.05205327
Pt       8.31556307       8.31551749       9.96620598       0.03154718       0.01187413       0.09024906
Pt       1.38100285       1.38600882      11.94626381      -0.00046717      -0.00200880       0.00501185
Pt       4.16294189       1.37604335      11.95671818       0.00303030       0.00630666      -0.00105621
Pt       6.92573938       1.37469444      11.96945437      -0.00841394      -0.00101301      -0.00114208
Pt       9.68553564       1.38328943      11.96487053       0.00281716      -0.00800127      -0.00347793
Pt       1.38364246       4.16591584      11.95856564       0.01508955       0.00836534       0.01005661
Pt       4.15318657       4.17248876      11.95760976      -0.01012629      -0.00219109       0.01067522
Pt       6.94108920       4.15626680      11.95096708      -0.00274388       0.00368542       0.00248523
Pt       9.71895208       4.17101353      11.97204335      -0.00400115      -0.00290612      -0.01741871
Pt       1.39526870       6.93097881      11.97570859      -0.00140948       0.00675069       0.00200417
Pt       4.17035600       6.95089789      11.97630829      -0.01296273       0.00481028      -0.00638713
Pt       6.92788667       6.93895969      11.96303245      -0.00146424       0.00453131      -0.00002005
Pt       9.72708403       6.93038500      11.97735544       0.01267888       0.00554664      -0.01198185
Pt       1.37730546       9.68828080      11.97352266      -0.00046923      -0.00941461       0.00728625
Pt       4.14548287       9.69406677      11.96587904      -0.00104541      -0.00168407      -0.00182188
Pt       6.92370914       9.70340521      11.96956255      -0.00227825      -0.00476914      -0.00151412
Pt       9.71093473       9.69201322      11.98021736       0.00366228      -0.00760172       0.00437242
Pt      -0.00966732       0.05068384      13.96324515      -0.00183217      -0.01474733       0.00061784
Pt       2.73960506       0.01769572      13.95528932       0.00609917      -0.00206434      -0.00292514
Pt       5.50334392       0.01767205      14.00802252      -0.00698080      -0.00673218      -0.00293851
Pt       8.32092695       0.00468570      14.00676331       0.00078470      -0.00837357       0.00000051
Pt       0.00550194       2.77403300      13.96016256       0.01048033      -0.00510107      -0.00137374
Pt       2.77512552       2.75299096      13.94210734       0.00610997      -0.00599041      -0.00266649
Pt       5.54650179       2.78380825      13.94441526      -0.00874561       0.00143853       0.00014990
Pt       8.31646517       2.78117313      13.95906778       0.00213093      -0.00968277       0.00005811
Pt       0.02738795       5.51415907      14.05472501       0.01199471       0.00744823      -0.00277293
Pt       2.84754348       5.49155577      13.96990978      -0.00498614      -0.00532913       0.00006273
Pt       5.58445470       5.53522202      13.95550514      -0.00804395      -0.00664784      -0.00351470
Pt       8.33054849       5.53814818      13.96287336      -0.00360623       0.00083587      -0.00653369
Pt      -0.03704388       8.38032492      14.10103872       0.01485609       0.00677537      -0.00340645
Pt       2.79898065       8.34058039      14.03513097      -0.00688001       0.00137888      -0.00300408
Pt       5.53827691       8.30928971      14.06926143      -0.00995377       0.00305833      -0.00193553
Pt       8.31419216       8.29241844      13.93701846       0.00743306      -0.00105518      -0.00112126
O        2.00145714       6.43640886      16.08870212      -0.00444441       0.01234772      -0.00197744
O        3.01877725       9.68613783      17.35329334       0.00435571      -0.00278939       0.01796995
O        7.06379666       8.75256552      16.56620729      -0.00173010       0.00107472      -0.00648689
O        5.20698538       6.91811870      17.19378486      -0.00934005       0.00241375       0.00365328
C        3.26479033       8.30745845      17.05233823      -0.00136577       0.00141308       0.00191804
C        2.23378655       7.87996921      15.98037383       0.00019052       0.00459456       0.00053787
C        4.77105596       7.97864843      16.76630885      -0.00052322      -0.00048337      -0.00920712
C        5.70512172       8.98002245      16.08989316      -0.00231476      -0.00133954       0.00139688
C        0.88317639       8.49188253      16.10032539      -0.00179206      -0.00069883      -0.00355918
C        5.54693149      10.47283631      16.04881648       0.00123927      -0.00849750       0.00329461
C       -0.09481251       7.46136230      16.11715836      -0.00035764       0.00040881       0.00076876
C        0.58003921       6.16504411      15.96885965      -0.00593745      -0.00702143      -0.00002828
C        6.83565278      11.01500644      16.46073613       0.00587497       0.00271997       0.00114183
C        7.67104100       9.95506450      16.69670882       0.00149407       0.00264618       0.00380755
H        3.05420695       7.67586050      17.93414715      -0.00262664       0.00449917      -0.00355249
H        0.76615208       9.49973000      16.48849478       0.00220421      -0.00407443       0.00685096
H        4.61097491      10.90352086      16.40582217      -0.00117911      -0.00361883       0.00194067
H       -1.10970559       7.53499748      16.50313663       0.00720680       0.00146784       0.00037975
H        0.32122165       5.34058010      16.64244389       0.00450817       0.00014784       0.00146193
H        7.06445594      12.06356448      16.62325404      -0.00184991       0.00587163      -0.00043812
H        3.34753460       9.85688163      18.25745240      -0.00603361      -0.01274753      -0.02461600
H        8.70995941       9.92767266      17.01133814       0.00614339       0.00459019       0.00698594
