72
Lattice="11.087434113345987 0.0 0.0 0.0 11.087434113345987 0.0 0.0 0.0 23.919997093830293" Properties=species:S:1:pos:R:3:forces:R:3 energy=-46295.06267854513 free_energy=-46295.06267854513 pbc="T T T"
Pt      -0.00009527      -0.00004859       9.96667100       0.00446781       0.02993767      -0.18282729
Pt       2.77173621      -0.00015720       9.96645199      -0.00215458      -0.00601870      -0.16532759
Pt       5.54376953      -0.00034343       9.96640857      -0.00914696      -0.03118054      -0.15625082
Pt       8.31571360      -0.00018976       9.96662959       0.03735581       0.05573457      -0.05701138
Pt      -0.00042809       2.77133446       9.96638676      -0.03400798       0.02926198       0.03857760
Pt       2.77173606       2.77103184       9.96622468       0.03056707       0.12912877       0.02683460
Pt       5.54421354       2.77185517       9.96597376      -0.05612615       0.06480183       0.04060029
Pt       8.31562674       2.77188781       9.96633361       0.05177790       0.01436784      -0.04048536
Pt      -0.00075902       5.54390697       9.96597014       0.08077095       0.02694028       0.12821012
Pt       2.77205531       5.54389405       9.96599512       0.05664500       0.00693478       0.22618252
Pt       5.54467518       5.54413479       9.96609470      -0.07267506      -0.00712556       0.17406497
Pt       8.31538521       5.54402761       9.96577354       0.03423578      -0.02030863       0.13382978
Pt      -0.00040448       8.31603045       9.96615557       0.04084557      -0.05978021      -0.08175697
Pt       2.77197514       8.31628060       9.96624031       0.06440716      -0.12503172       0.02903958
Pt       5.54417137       8.31566934       9.96635634      -0.01595498      -0.06553073      -0.08222979
Pt       8.31556307       8.31551749       9.96620598       0.00187228      -0.04391958      -0.03576559
Pt       1.38025980       1.39322651      11.94147425      -0.00902894       0.00459816      -0.00178589
Pt       4.15713173       1.38800054      11.92937646      -0.00533350       0.00297554      -0.00778479
Pt       6.94788588       1.38983511      11.95215966       0.00435442       0.00117885      -0.00095054
Pt       9.68668021       1.40933718      11.96958134       0.00178563      -0.01265523      -0.00874561
Pt       1.39462316       4.17687657      11.99149379      -0.00002134      -0.01012320       0.00508410
Pt       4.14100580       4.20189734      12.01987008      -0.01347747       0.00817894      -0.00738395
Pt       6.93368778       4.15938779      11.96649750       0.00024965      -0.00087597       0.00817148
Pt       9.72635829       4.17020274      11.98324958       0.00017843      -0.01022631      -0.00266829
Pt       1.40640901       6.90362369      11.99598967       0.00146399      -0.01058138       0.00305216
Pt       4.17455792       6.90222435      12.00532765      -0.00863762       0.00109349       0.00838668
Pt       6.93580799       6.91744515      11.96872546      -0.00886722      -0.00273283       0.00380960
Pt       9.71917045       6.90792740      11.97004422       0.00675737       0.00272563      -0.00511830
Pt       1.39313047       9.69551923      11.93525276      -0.00913693       0.00071040       0.00711553
Pt       4.16786084       9.68425452      11.94628745       0.00483136      -0.00416930       0.00249243
Pt       6.93484668       9.69466206      11.94868298       0.00365508       0.01241791      -0.00150795
Pt       9.70145736       9.70361995      11.93996084      -0.00735001       0.01545284       0.00904334
Pt       0.00752919      -0.00434967      13.93186511      -0.00534455       0.00147247       0.00038592
Pt       2.77807422       0.00416777      13.92472650      -0.00997357      -0.00311952      -0.00881863
Pt       5.54711443      -0.01470935      13.92975240       0.00239884       0.00250297       0.00610354
Pt       8.31886381      -0.00486348      13.95531150      -0.00385485      -0.00362397       0.00462876
Pt       0.00929237       2.71289888      13.96139491       0.00815168      -0.00299868      -0.00640667
Pt       2.77857710       2.73128525      13.94904543      -0.01375155       0.00030853       0.00131049
Pt       5.52232503       2.71347995      13.89631034       0.00018461      -0.00973908       0.00538826
Pt       8.31519310       2.75625660      14.07729022      -0.00397827      -0.00567468       0.01280589
Pt      -0.01366790       5.49096806      14.11544838      -0.00967429       0.00437910       0.00316786
Pt       2.85589721       5.56010060      14.21077911      -0.00575130      -0.01014609       0.00980593
Pt       5.60695519       5.53744892      14.10899770      -0.00686947      -0.00087572       0.00550576
Pt       8.35400855       5.56721879      14.00750900      -0.01229733       0.00104875       0.01721893
Pt      -0.00028427       8.36299655      13.91770566      -0.00790434       0.00357255       0.01770179
Pt       2.80409951       8.37250094      13.94304916      -0.00475808      -0.01517028       0.00149304
Pt       5.57315165       8.32630849      13.96688324      -0.01142573      -0.00379315       0.01028981
Pt       8.33308214       8.33175047      13.94673398      -0.01601309       0.01194483       0.01047519
O        4.47466228       2.94138852      18.16591139      -0.00601330       0.00280764       0.00392993
O        3.31085577       5.18989339      18.59890172       0.00681985       0.00731299       0.00289686
O        6.77641800       3.03446646      16.59127664       0.00916470       0.01260869      -0.00686125
O        1.48135950       4.30896281      16.54871747      -0.01094930       0.00258062      -0.00616756
C        4.51825775       3.76539087      16.99553805       0.01180728       0.00352318      -0.00306013
C        3.71655848       5.07388339      17.24659724      -0.00944649      -0.00542014      -0.01026307
C        5.93077574       4.06942886      16.59748485      -0.00396953      -0.00090271      -0.01011909
C        2.51646413       5.23711845      16.33699818      -0.00034041       0.00227208      -0.00199749
C        6.52763536       5.27537196      16.17616962       0.00258267      -0.01390093       0.00417264
C        1.94780271       6.52295205      16.07655969      -0.00842448       0.00152209      -0.00074382
C        7.96817515       4.97220527      15.96237162      -0.00664476       0.00802544      -0.00635628
C        0.49660754       6.35065790      16.04989803      -0.00092508      -0.00123747      -0.00706642
C        8.05722868       3.47199244      16.02645771      -0.01879039      -0.01752284      -0.00732790
C        0.29370217       4.94523339      16.24354191      -0.00081427       0.00563534      -0.00832369
H        4.05111069       3.22386298      16.14063241       0.00814500       0.01043868      -0.01348132
H        4.34885025       5.94019161      17.01494421      -0.00579192       0.00410914       0.00502908
H        6.22025104       6.24827227      16.55495002      -0.00928631       0.01461878       0.00964369
H        2.43405431       7.45703554      16.35446852       0.00318174       0.00418833      -0.00786372
H        4.36963275       2.01322211      17.88132100      -0.01548113      -0.01351783      -0.00963315
H        3.36459980       4.28161729      18.97631046      -0.02028086       0.00039338      -0.00924774
H        8.66980462       5.54634435      16.57992740      -0.00676072       0.00416544       0.00421224
H       -0.20663433       7.13176731      16.33740344       0.01050578      -0.00492598       0.00101661
H        8.84451889       3.00829051      16.63124904       0.00087829       0.00656351      -0.00330387
H       -0.57372059       4.43468847      16.64751748      -0.00260838       0.00039544      -0.01703562
