60
Lattice="11.087434113345987 0.0 0.0 0.0 11.087434113345987 0.0 0.0 0.0 23.919997093830293" Properties=species:S:1:pos:R:3:forces:R:3 energy=-44065.475563422224 free_energy=-44065.475563422224 pbc="T T T"
Pt      -0.00009527      -0.00004859       9.96667100      -0.00424206      -0.00576698      -0.10365814
Pt       2.77173621      -0.00015720       9.96645199      -0.03373827       0.03603915       0.01382225
Pt       5.54376953      -0.00034343       9.96640857       0.04254816       0.04456904       0.02149339
Pt       8.31571360      -0.00018976       9.96662959      -0.00143853       0.00043606      -0.09657783
Pt      -0.00042809       2.77133446       9.96638676       0.04833725      -0.06424750       0.00407160
Pt       2.77173606       2.77103184       9.96622468       0.01584648      -0.00551167       0.06316018
Pt       5.54421354       2.77185517       9.96597376      -0.00196509      -0.01119818       0.07849089
Pt       8.31562674       2.77188781       9.96633361      -0.05646965      -0.06166174       0.02430747
Pt      -0.00075902       5.54390697       9.96597014       0.02968879       0.03474820      -0.02113704
Pt       2.77205531       5.54389405       9.96599512       0.03117823       0.01857108       0.07963606
Pt       5.54467518       5.54413479       9.96609470      -0.02665514       0.01654016       0.09183980
Pt       8.31538521       5.54402761       9.96577354      -0.02100180       0.03086738       0.00011390
Pt      -0.00040448       8.31603045       9.96615557      -0.01852171       0.03722289      -0.12324789
Pt       2.77197514       8.31628060       9.96624031       0.00525148      -0.04962846       0.03998760
Pt       5.54417137       8.31566934       9.96635634       0.00402095      -0.05089653       0.04816910
Pt       8.31556307       8.31551749       9.96620598       0.00760044       0.03151864      -0.09950041
Pt       1.40142389       1.39840579      11.97307076      -0.00437910       0.00508821       0.00340645
Pt       4.15864703       1.39505305      11.96785839       0.00882171       0.00023166      -0.00185454
Pt       6.91538306       1.39985950      11.97677334      -0.00659154       0.00582226       0.00125855
Pt       9.70147117       1.38631716      11.95545934       0.00186868      -0.00020775       0.00046743
Pt       1.39338352       4.15626194      11.95943845      -0.00536666      -0.00093408      -0.00123979
Pt       4.15968484       4.16263024      11.97485852       0.00465318      -0.00289892       0.01220631
Pt       6.92375033       4.15702255      11.96472201      -0.00557209      -0.00630383      -0.00366845
Pt       9.70396276       4.15604329      11.95139908      -0.01378008      -0.00102561      -0.00484473
Pt       1.39609837       6.92355825      11.96058614      -0.00267986      -0.00287758       0.00275468
Pt       4.15909925       6.90967919      11.98671373       0.00547336      -0.00731222       0.00044403
Pt       6.92098946       6.92143755      11.96501768      -0.00576441       0.00030776       0.00656814
Pt       9.70348702       6.93290259      11.95189494      -0.01137996       0.00261096       0.00413279
Pt       1.38809537       9.70393164      11.95519967      -0.00107961       0.00542040      -0.00008125
Pt       4.15964847       9.69802590      11.95762468      -0.00639973      -0.00601638      -0.00219598
Pt       6.92864549       9.70522852      11.95667487       0.00602872      -0.00575516       0.00192627
Pt       9.70130845       9.70376310      11.95381876       0.00250965       0.00461899       0.00873147
Pt       0.00218986       0.00169138      13.94754988       0.00058364      -0.00054790       0.01120358
Pt       2.77691442      -0.00890517      13.95799433      -0.00322005       0.00149355       0.00963058
Pt       5.54230559      -0.00853698      13.96082185      -0.00510775       0.00043632      -0.00118219
Pt       8.31640897       0.00206759      13.95009895      -0.00649049       0.00051782       0.00440584
Pt      -0.00766487       2.77204207      13.95718306      -0.00274542       0.00294288       0.00579012
Pt       2.76042166       2.76583322      14.04285424      -0.00605186      -0.00723380      -0.01715517
Pt       5.55471388       2.76875027      14.04975743       0.00988332      -0.00446395      -0.01617121
Pt       8.32765657       2.77326913      13.95950618      -0.00499694      -0.00636734      -0.00372784
Pt      -0.01287741       5.54519051      13.95076640      -0.00438116       0.00113334      -0.00555744
Pt       2.71865549       5.55637383      14.04600648      -0.00268475       0.01254364       0.00836894
Pt       5.59683462       5.55035073      14.06443076       0.00347742       0.00405772      -0.02075009
Pt       8.33710457       5.54443585      13.94744733      -0.00342085       0.00989978      -0.00173267
Pt      -0.00082536       8.31766116      13.94785765      -0.00108141       0.00341083      -0.00306707
Pt       2.76714217       8.31785093      13.95756582       0.00018923       0.00360443      -0.00271200
Pt       5.55109362       8.31617018      13.95902227       0.00399549      -0.01376312       0.00126318
Pt       8.31919113       8.31691646      13.94897219      -0.00340286       0.00444929      -0.00931254
O        4.15617317       5.63252853      16.51813841       0.00942309      -0.00725282      -0.00166556
C        5.30678009       4.91851278      16.09256140       0.02253623       0.00368516      -0.00759170
C        4.90265345       3.47768734      15.93238832       0.01574004      -0.00129764      -0.00441844
C        6.50515070       5.26497787      16.93816314       0.00409474       0.01049730       0.00355815
C        3.40240063       3.48295281      15.92318651       0.00461127      -0.01044562      -0.00285521
C        3.03233051       4.92899659      16.03124834      -0.00034453      -0.00105878       0.00652597
H        5.39298462       2.76747816      16.61084826       0.00188128      -0.00296628      -0.00068906
H        7.37510304       4.68960071      16.59568040       0.00271611       0.00942746       0.00889087
H        6.74469245       6.33291317      16.87628913      -0.00780407      -0.00236130       0.00224637
H        6.29835832       5.00918391      17.99101359      -0.01069090      -0.00354092      -0.01836256
H        2.89599172       2.78945946      16.60616015      -0.00512498       0.00143288      -0.00164602
H        2.13569512       5.21583173      16.58816469       0.00161440      -0.00060292       0.00773054
