65
Lattice="11.087434113345987 0.0 0.0 0.0 11.087434113345987 0.0 0.0 0.0 23.919997093830293" Properties=species:S:1:pos:R:3:forces:R:3 energy=-44569.94918907466 free_energy=-44569.94918907466 pbc="T T T"
Pt      -0.00009527      -0.00004859       9.96667100      -0.00517435      -0.00829001      -0.00482339
Pt       2.77173621      -0.00015720       9.96645199      -0.01623703      -0.00931973      -0.01034869
Pt       5.54376953      -0.00034343       9.96640857      -0.01073436      -0.01095007      -0.01881148
Pt       8.31571360      -0.00018976       9.96662959      -0.00356483      -0.01449614      -0.00761818
Pt      -0.00042809       2.77133446       9.96638676      -0.01865232       0.02352045       0.01869655
Pt       2.77173606       2.77103184       9.96622468      -0.02176439      -0.00314446      -0.02624454
Pt       5.54421354       2.77185517       9.96597376      -0.00608709       0.00876952      -0.00339848
Pt       8.31562674       2.77188781       9.96633361       0.00952028       0.00403252      -0.00080347
Pt      -0.00075902       5.54390697       9.96597014      -0.01594007       0.00627143       0.04579726
Pt       2.77205531       5.54389405       9.96599512      -0.01369987       0.00808586       0.00469175
Pt       5.54467518       5.54413479       9.96609470      -0.00181726       0.00644267       0.01507592
Pt       8.31538521       5.54402761       9.96577354      -0.00236464       0.00831572       0.01617147
Pt      -0.00040448       8.31603045       9.96615557      -0.02938231      -0.02545701       0.03810349
Pt       2.77197514       8.31628060       9.96624031      -0.01473448       0.00709444      -0.01511757
Pt       5.54417137       8.31566934       9.96635634       0.00151155      -0.00914387       0.01290437
Pt       8.31556307       8.31551749       9.96620598       0.00330644      -0.00496146       0.01914983
Pt       1.37942562       1.38589176      11.96106279       0.02037496      -0.00517846       0.00075205
Pt       4.15204658       1.38523627      11.95581461      -0.01291002      -0.01205436       0.02135481
Pt       6.92606838       1.38496998      11.95514088       0.00889473      -0.00712376       0.01389784
Pt       9.69881338       1.38596227      11.96032392      -0.00469021       0.00285701      -0.00165399
Pt       1.38112420       4.15889733      11.96106232      -0.00514375      -0.00158920       0.00836791
Pt       4.15273220       4.15943221      11.95769915       0.00235179      -0.01066416      -0.00164345
Pt       6.93079653       4.16133777      11.96426878      -0.00086543      -0.00304341      -0.00066746
Pt       9.69227347       4.16278781      11.96866113       0.01106603      -0.00362731       0.00703505
Pt       1.38128887       6.92997640      11.96094475      -0.00312543       0.00718109       0.01678699
Pt       4.15521194       6.92994453      11.96015927      -0.01433879       0.00437165      -0.01367056
Pt       6.93009689       6.92641978      11.96836413       0.00733150       0.00048517      -0.01814787
Pt       9.69012646       6.92424344      11.97194766       0.01005816       0.00106675       0.00278322
Pt       1.38010341       9.70082989      11.96153570       0.01086317      -0.00048722       0.00813728
Pt       4.15312150       9.70068973      11.95951596      -0.01481932       0.00899500       0.00551065
Pt       6.92543328       9.69918688      11.95966759       0.00239010       0.00792491      -0.00764003
Pt       9.69735776       9.69952769      11.96208027       0.01104572      -0.00377618      -0.01141596
Pt      -0.00848067       0.00021011      13.95462781       0.01324041      -0.00697772       0.01063100
Pt       2.76609171       0.00149946      13.95549815      -0.00265518      -0.00422252      -0.01331600
Pt       5.53655560       0.00062562      13.95576009      -0.00581661      -0.00765572      -0.01456299
Pt       8.30538248      -0.00087137      13.95627322       0.01104803      -0.00771819      -0.01215155
Pt      -0.00770349       2.77353100      13.95957766       0.00972880      -0.00402429      -0.00816351
Pt       2.76467132       2.77026472      13.95546134       0.00259707      -0.01477356       0.00142182
Pt       5.53431855       2.75762301      13.94628476       0.00000360      -0.01235261      -0.01522839
Pt       8.30524487       2.75468003      13.95610966       0.01200422       0.00116908      -0.01313551
Pt       0.00180725       5.54503143      13.96558254      -0.00237493       0.00284261      -0.01023145
Pt       2.75032538       5.54512693      13.96722351      -0.00159743       0.00780510      -0.00759658
Pt       5.51558161       5.54475404      13.95147412       0.01449048       0.00343988       0.00380652
Pt       8.31908156       5.54405563      13.99791480       0.01224745       0.00513012      -0.00691113
Pt      -0.00950825       8.31483194      13.96240771       0.00861011      -0.00060447      -0.01455759
Pt       2.76367714       8.31862651      13.95718052       0.00193861       0.00205714      -0.00930894
Pt       5.53471468       8.32450099      13.95462342       0.00226386       0.00318200       0.01247036
Pt       8.30523838       8.32966351      13.96269318       0.01289383      -0.01497102      -0.00456705
O        4.87110938       6.20280486      17.51032537       0.00361831       0.02097917      -0.00158997
O        8.25885419       5.36486192      16.51487879      -0.00735053      -0.01637099       0.01450745
C        5.90938269       5.42893058      16.98179756       0.00463621       0.02072566       0.00152929
C        5.63054603       3.97783795      17.37049971       0.01041194       0.00975939      -0.01268505
C        4.08575976       3.95109729      17.50668123       0.00905723       0.00419064      -0.00958019
C        3.67704913       5.42244637      17.32144661      -0.00024605       0.00492726       0.00818871
C        7.24973695       6.06187485      17.28737213       0.00890270       0.01473808      -0.00104258
H        5.82075595       5.47843844      15.80695435      -0.00165373       0.00496506      -0.00426572
H        6.13339157       3.74035546      18.31971616      -0.00714767       0.01256421       0.00066000
H        6.00302087       3.27910276      16.60664048       0.00984964      -0.00504682      -0.00609043
H        3.62619275       3.32039502      16.73167638      -0.01073796      -0.00038284       0.00259064
H        3.77550062       3.56894869      18.48703845       0.01519496      -0.00940792      -0.01530218
H        3.30931126       5.60255361      16.27259997       0.00069137      -0.00396927       0.00861294
H        2.91913078       5.79986503      18.01628595       0.00267163      -0.00081941       0.02311499
H        7.47591549       5.95475217      18.36168901       0.00754902       0.00448760      -0.00295857
H        7.21680556       7.12863644      17.01813053      -0.00796708       0.01869552      -0.00653832
H        9.12086644       5.81140380      16.65051854      -0.00877055      -0.00446781      -0.01096190
